[Molden Format]
[Atoms] Angs
 h       1                    1 -2.270000000000e-01 -8.250000000000e-01 -2.666000000000e+00
 o       2                    8  1.860000000000e-01 -1.470000000000e-01 -3.258000000000e+00
 h       3                    1  3.000000000000e-02  7.140000000000e-01 -2.796000000000e+00
[GTO]
1
 s           4
      1.906916900000e+02      5.342636962281e-03
      2.860553200000e+01      4.125233824335e-02
      6.509594300000e+00      2.109935256984e-01
      1.841245500000e+00      8.121285458619e-01
 s           1
      5.985372500000e-01      1.000000000000e+00
 s           1
      2.139762400000e-01      1.000000000000e+00
 s           1
      8.031628600000e-02      1.000000000000e+00
 p           1
      2.292000000000e+00      1.000000000000e+00
 p           1
      8.380000000000e-01      1.000000000000e+00
 p           1
      2.920000000000e-01      1.000000000000e+00
 d           1
      2.062000000000e+00      1.000000000000e+00
 d           1
      6.620000000000e-01      1.000000000000e+00
 f           1
      1.397000000000e+00      1.000000000000e+00

2
 s           8
      1.165064690800e+05      7.198757576038e-05
      1.750434972400e+04      5.571487722521e-04
      3.993451323000e+03      2.913003168331e-03
      1.133006318600e+03      1.217205107739e-02
      3.699956959400e+02      4.300376182686e-02
      1.336207434900e+02      1.296476238968e-01
      5.203564364900e+01      3.196960856290e-01
      2.146193931300e+01      5.893145879674e-01
 s           2
      8.983505125200e+01      9.484805276266e-02
      2.642801084400e+01      9.253637879165e-01
 s           1
      9.282282464900e+00      1.000000000000e+00
 s           1
      4.094772853300e+00      1.000000000000e+00
 s           1
      1.325534907800e+00      1.000000000000e+00
 s           1
      5.187723078700e-01      1.000000000000e+00
 s           1
      1.977267645400e-01      1.000000000000e+00
 p           5
      1.911525581000e+02      2.535957413935e-03
      4.523335673900e+01      2.023382429411e-02
      1.435346592200e+01      9.451801999808e-02
      5.242237183200e+00      3.091543280737e-01
      2.079241859900e+00      6.846894953376e-01
 p           1
      8.428237142400e-01      1.000000000000e+00
 p           1
      3.361769489100e-01      1.000000000000e+00
 p           1
      1.286399797400e-01      1.000000000000e+00
 d           1
      3.775000000000e+00      1.000000000000e+00
 d           1
      1.300000000000e+00      1.000000000000e+00
 d           1
      4.440000000000e-01      1.000000000000e+00
 f           1
      2.666000000000e+00      1.000000000000e+00
 f           1
      8.590000000000e-01      1.000000000000e+00
 g           1
      1.846000000000e+00      1.000000000000e+00

3
 s           4
      1.906916900000e+02      5.342636962281e-03
      2.860553200000e+01      4.125233824335e-02
      6.509594300000e+00      2.109935256984e-01
      1.841245500000e+00      8.121285458619e-01
 s           1
      5.985372500000e-01      1.000000000000e+00
 s           1
      2.139762400000e-01      1.000000000000e+00
 s           1
      8.031628600000e-02      1.000000000000e+00
 p           1
      2.292000000000e+00      1.000000000000e+00
 p           1
      8.380000000000e-01      1.000000000000e+00
 p           1
      2.920000000000e-01      1.000000000000e+00
 d           1
      2.062000000000e+00      1.000000000000e+00
 d           1
      6.620000000000e-01      1.000000000000e+00
 f           1
      1.397000000000e+00      1.000000000000e+00


[5D]
[7F]
[9G]
[MO]
 Ene=    0.363066
 Spin= Alpha
 Sym= 0->0
 Occup=     0.961337
   1    -0.0442911442995028
   2    -0.0968721906727336
   3    -0.0922516195541969
   4    -0.0000620407541570
   5    -0.0004219690043583
   6    -0.0035682377405596
   7    -0.0000087756232324
   8    -0.0026297658380185
   9    -0.0150393501978896
  10     0.0014814350421910
  11    -0.0007403830992693
  12    -0.0219491034606378
  13    -0.0033632670324603
  14     0.0007542308521093
  15     0.0000405209267681
  16     0.0009022713973737
  17     0.0010705696684993
  18    -0.0007758097677750
  19     0.0031892829819034
  20    -0.0004867614705147
  21     0.0013483714560624
  22     0.0044246096438424
  23    -0.0018078346415548
  24    -0.0004324353347551
  25     0.0002267582001891
  26     0.0003159100595123
  27    -0.0005038668763656
  28     0.0002606042396103
  29     0.0005332436861337
  30     0.0004155439529143
  31    -0.0392726076359537
  32    -0.0061937358450247
  33    -0.0503975690914724
  34    -0.0228782578797225
  35     0.1027116753585367
  36     0.2312215587543909
  37     0.1724884912753867
  38     0.1502339877674901
  39    -0.0494314408892150
  40    -0.2785269731200014
  41     0.1465451830676690
  42    -0.0482015063869693
  43    -0.2716846383287683
  44     0.1151057515093749
  45    -0.0377799921004400
  46    -0.2133809301941904
  47     0.0222255502841466
  48    -0.0072451909362056
  49    -0.0411907165630260
  50    -0.0010016974527133
  51     0.0019046342411695
  52    -0.0004236652300489
  53     0.0006786301422100
  54    -0.0000533697268467
  55    -0.0048000762671736
  56     0.0070031057044605
  57    -0.0018748476328482
  58     0.0007019318364588
  59     0.0004194281637354
  60    -0.0082790893869602
  61     0.0101898626716077
  62    -0.0030775492067936
  63    -0.0010623233711994
  64     0.0013149028631871
  65     0.0005613342662516
  66     0.0006690551796553
  67     0.0001129933547436
  68     0.0007505285482322
  69    -0.0002442489146940
  70    -0.0006125244068472
  71     0.0004275577892076
  72     0.0005965541511342
  73     0.0016327606506468
  74    -0.0000207547355031
  75     0.0008907853744832
  76    -0.0001918639573126
  77    -0.0008907717074084
  78     0.0005969098974317
  79     0.0002259149838952
  80     0.0000598355712014
  81     0.0000855358316586
  82     0.0001507781469522
  83    -0.0000888513287143
  84    -0.0002191079112607
  85     0.0001664926794587
  86     0.0000670541312639
  87    -0.0000943727126132
  88    -0.0447659253954222
  89    -0.0978146689060548
  90    -0.0928658130437949
  91    -0.0000683471549932
  92     0.0007439699508373
  93     0.0034969251429466
  94    -0.0005808083368021
  95     0.0023741784398019
  96     0.0152217305029003
  97    -0.0009866138310313
  98     0.0062672872836878
  99     0.0202378341772416
 100    -0.0068604754399229
 101     0.0009484102342943
 102    -0.0002366261773093
 103    -0.0004084724445347
 104     0.0014286703916796
 105    -0.0000983798579689
 106     0.0032975314640229
 107    -0.0006387566397503
 108     0.0005871065822240
 109     0.0046355571256716
 110    -0.0014157216033860
 111    -0.0002373509845990
 112     0.0000783736006418
 113    -0.0006218968952298
 114    -0.0002798643489247
 115     0.0001128942714548
 116    -0.0000903377696223
 117    -0.0007571408116800
 Ene=    0.456861
 Spin= Alpha
 Sym= 0->1
 Occup=     0.966073
   1     0.0612776843502347
   2     0.0979873961479125
   3     0.0765429803692635
   4     0.0019014478469203
   5     0.0027551543750960
   6     0.0028069742452809
   7    -0.0043126938494811
   8     0.0043121452796637
   9     0.0021245089811333
  10    -0.0072289966129748
  11     0.0035614721028403
  12     0.0022682326628380
  13    -0.0058519340782150
  14     0.0005330343757481
  15    -0.0008428727569936
  16    -0.0009701963989768
  17     0.0001685491377874
  18     0.0005688045933077
  19     0.0008795599741804
  20    -0.0006447412681162
  21    -0.0000272100214562
  22     0.0007304822416063
  23    -0.0001158365758908
  24     0.0000915362564022
  25     0.0000588019267465
  26     0.0001842409916541
  27     0.0000695092738256
  28    -0.0002326592714485
  29    -0.0000796522314120
  30     0.0000655449264511
  31     0.0013412617682678
  32     0.0001824553529373
  33     0.0015650255792303
  34     0.0007730843375353
  35    -0.0028417499134253
  36    -0.0050668940191189
  37    -0.0016403736669021
  38    -0.0562790600609005
  39    -0.3354584353346617
  40     0.0290871801076707
  41    -0.0563703508212068
  42    -0.3361768912239169
  43     0.0290951719585591
  44    -0.0361472645006545
  45    -0.2158575972831875
  46     0.0186661262121528
  47    -0.0042063401089070
  48    -0.0250847290669429
  49     0.0022119668259292
  50     0.0004846919775274
  51    -0.0006950657445849
  52    -0.0032361416696180
  53     0.0008786953089313
  54     0.0016746619998216
  55     0.0022919660426630
  56    -0.0032951075093845
  57    -0.0153682979694646
  58     0.0041634327398044
  59     0.0079547874848518
  60     0.0025612335775086
  61    -0.0037195050815276
  62    -0.0173234760668052
  63     0.0046439751435621
  64     0.0089793530615531
  65     0.0000444250859207
  66    -0.0002366028970384
  67    -0.0001622429223139
  68     0.0004043897705919
  69     0.0014944854209260
  70     0.0004822594894149
  71     0.0012316623865274
  72    -0.0000925849390387
  73    -0.0003009141382359
  74     0.0004694956867289
  75     0.0005256599067864
  76     0.0028056903811734
  77     0.0013825196304022
  78     0.0031573119253862
  79    -0.0001825468830662
  80     0.0001038414998045
  81     0.0006540375377264
  82    -0.0001972777662291
  83     0.0001047415977097
  84     0.0003487064517833
  85     0.0005093378791945
  86    -0.0004120511586672
  87    -0.0004086601116925
  88    -0.0622519928184046
  89    -0.1000118552152108
  90    -0.0770420772830878
  91    -0.0018535429377533
  92    -0.0016067478585388
  93     0.0043009469481203
  94     0.0037866249440470
  95    -0.0032433156869314
  96     0.0049722392857464
  97     0.0068557002333546
  98    -0.0025021377019257
  99     0.0044406288850259
 100     0.0054275651511010
 101    -0.0001938575701365
 102     0.0003697506718999
 103    -0.0012997892341084
 104     0.0004664457167217
 105     0.0006002295820710
 106    -0.0007599437511927
 107     0.0005230968487355
 108    -0.0006330669119223
 109    -0.0004864103313068
 110     0.0004401183084958
 111    -0.0001574658859441
 112     0.0000374350577754
 113     0.0000897314526233
 114    -0.0002366467212980
 115    -0.0001091005285428
 116     0.0001168912802781
 117    -0.0000902079448959
 Ene=    0.609501
 Spin= Alpha
 Sym= 0->2
 Occup=     0.972435
   1    -0.0096618104799256
   2    -0.0414008700615502
   3    -0.0255373547223388
   4     0.0004911651446067
   5    -0.0030515326091535
   6     0.0003672750910702
   7    -0.0017535004135321
   8    -0.0143625836049922
   9    -0.0087454893982131
  10    -0.0008027191835678
  11    -0.0214410676507626
  12    -0.0064882386614040
  13    -0.0070302426871005
  14     0.0010173780006424
  15     0.0007912602776503
  16    -0.0001477009108752
  17    -0.0004147984220042
  18    -0.0013283489370242
  19     0.0038541553461088
  20     0.0027197272206375
  21    -0.0004239650256061
  22    -0.0002160423912827
  23    -0.0054885434251864
  24    -0.0004667702994737
  25     0.0002788976135012
  26     0.0007494106815212
  27     0.0003845472402362
  28     0.0004852616188787
  29     0.0005651669055579
  30    -0.0003323845553282
  31    -0.0066116347393872
  32    -0.0010973251329272
  33    -0.0092969460803665
  34    -0.0038660537173617
  35     0.0313417614417197
  36     0.0509242967397214
  37     0.0218601023245246
  38    -0.3336562591879037
  39     0.0439171415937017
  40    -0.1454200241098847
  41    -0.3322582954753825
  42     0.0439003058091501
  43    -0.1439139305314632
  44    -0.2814744914891970
  45     0.0343005410907918
  46    -0.1518801994850798
  47    -0.0679862286104540
  48     0.0080247996574347
  49    -0.0393360562272614
  50    -0.0011145428663442
  51    -0.0010165176011994
  52     0.0000861746160380
  53     0.0009621918434644
  54    -0.0004160027272718
  55    -0.0064255856436545
  56    -0.0050477167628463
  57     0.0000785461816133
  58     0.0017024307309351
  59    -0.0010361145939260
  60    -0.0136796366681927
  61    -0.0080039328869592
  62    -0.0003596888839656
  63     0.0027187690405206
  64    -0.0016430948581521
  65    -0.0003682849562057
  66     0.0000222449526568
  67     0.0000222694322958
  68     0.0007390348197301
  69    -0.0001360425652831
  70     0.0010217512597814
  71    -0.0004683428974948
  72    -0.0020810852575604
  73     0.0004866597523266
  74    -0.0003680679939888
  75     0.0011593277494733
  76     0.0001049232352067
  77     0.0036549242751471
  78    -0.0018705419657779
  79    -0.0000473332397398
  80     0.0002333388861052
  81    -0.0000236844885451
  82     0.0001987041592333
  83     0.0000579798939523
  84     0.0004218012330011
  85    -0.0002465020253479
  86    -0.0002310389488152
  87     0.0002562709965823
  88    -0.0100318652675207
  89    -0.0428553009125919
  90    -0.0264473579313048
  91     0.0004804131883964
  92    -0.0030612996702995
  93     0.0003648012210668
  94    -0.0017565220301995
  95    -0.0108682493976940
  96     0.0129556180175615
  97    -0.0024494776379905
  98    -0.0184473742234195
  99     0.0120718662715644
 100    -0.0084343814398465
 101     0.0009769156998733
 102     0.0006123275672895
 103     0.0001942365720211
 104     0.0005163202736357
 105     0.0014290737299822
 106     0.0036778156487987
 107     0.0020582506451644
 108     0.0009142707898034
 109     0.0032810195310226
 110     0.0048927804488534
 111    -0.0001390493053359
 112     0.0001380362895373
 113    -0.0008561867299310
 114     0.0002555691201555
 115    -0.0005018540297487
 116     0.0007101883569852
 117    -0.0002866468540441
 Ene=    0.120413
 Spin= Alpha
 Sym= 1->0
 Occup=     0.698461
   1     0.0892966018190138
   2     0.3616485509690066
   3     0.2280849928519752
   4     0.0027614035950395
   5    -0.0001018960915145
   6     0.0011628383828932
   7     0.0004300430345483
   8     0.0369335805208478
   9     0.0584117441133962
  10    -0.0534144216554352
  11     0.0312182963259763
  12     0.0488266676646203
  13    -0.0452649201311337
  14     0.0002583717591761
  15    -0.0028978825215925
  16    -0.0045948860020569
  17    -0.0017298580653047
  18     0.0032305164098591
  19     0.0040282463496616
  20    -0.0141840733149552
  21    -0.0197868527041148
  22    -0.0045548820278745
  23     0.0133249049471309
  24     0.0008559300357782
  25     0.0018846802826450
  26     0.0021412989550224
  27     0.0005773040874786
  28    -0.0029204132442020
  29    -0.0011012113284398
  30     0.0007299762017909
  31     0.0011438048009877
  32     0.0002086846473720
  33     0.0016185138715810
  34     0.0007345370769339
  35    -0.0046817743751081
  36    -0.0073675315836238
  37    -0.0026020550884669
  38     0.0567969492697298
  39     0.3289840828485510
  40    -0.0310918328122890
  41     0.0632253775071825
  42     0.3675338451675834
  43    -0.0343320697958022
  44     0.0158219906788290
  45     0.0931478972873182
  46    -0.0083320705584603
  47    -0.0001322695445590
  48    -0.0004596684691923
  49     0.0001409275184766
  50     0.0004686104370920
  51    -0.0006983485661807
  52    -0.0032796329495948
  53     0.0008611207156644
  54     0.0017038141120078
  55    -0.0011058830814494
  56     0.0017261343331493
  57     0.0077076832941781
  58    -0.0019317637651309
  59    -0.0040323328768308
  60    -0.0026134549092953
  61     0.0040610274775925
  62     0.0190909293461430
  63    -0.0048261135001466
  64    -0.0099629409883646
  65    -0.0002655379104206
  66     0.0006182709574738
  67     0.0012559533117357
  68    -0.0009821974334097
  69    -0.0027300254135156
  70    -0.0003176207853756
  71    -0.0011787370839871
  72    -0.0000599758910282
  73     0.0011897410354708
  74     0.0007207957313657
  75    -0.0018670705260164
  76    -0.0077299389637066
  77    -0.0026771162857483
  78    -0.0064123015454294
  79     0.0004508817115038
  80    -0.0002937772148382
  81    -0.0015539217362029
  82     0.0005572016506454
  83    -0.0000371786925086
  84    -0.0008700098260008
  85    -0.0011835558416876
  86     0.0009255116485831
  87     0.0009002326197631
  88    -0.0879753929732795
  89    -0.3550109560505163
  90    -0.2235632668920527
  91    -0.0028371748997319
  92     0.0004466364569116
  93     0.0010548448138643
  94    -0.0005714416765684
  95    -0.0146224371855351
  96     0.0731643787798963
  97     0.0416963006330324
  98    -0.0126226466882517
  99     0.0612772035966678
 100     0.0355928499332964
 101     0.0010556820055481
 102     0.0009197549042279
 103    -0.0045282705899690
 104     0.0041013561798376
 105     0.0015172973685025
 106     0.0017990883644010
 107     0.0052437275543466
 108    -0.0213111115767962
 109     0.0150480865072175
 110     0.0081111299448609
 111    -0.0016300470368427
 112    -0.0005899120693772
 113     0.0016125364483944
 114    -0.0026911277741723
 115    -0.0017760367634775
 116     0.0015163413081205
 117    -0.0010070060467830
 Ene=    0.214209
 Spin= Alpha
 Sym= 1->1
 Occup=     0.000380
   1     0.0000174928306192
   2     0.0000382597676068
   3     0.0000364348674339
   4     0.0000000245030793
   5     0.0000001666570616
   6     0.0000014092789212
   7     0.0000000034659440
   8     0.0000010386288608
   9     0.0000059398062690
  10    -0.0000005850946598
  11     0.0000002924152892
  12     0.0000086688198467
  13     0.0000013283251332
  14    -0.0000002978841945
  15    -0.0000000160038045
  16    -0.0000003563529926
  17    -0.0000004228225304
  18     0.0000003064068389
  19    -0.0000012596103301
  20     0.0000001922467834
  21    -0.0000005325407715
  22    -0.0000017475038531
  23     0.0000007140061393
  24     0.0000001707907568
  25    -0.0000000895583515
  26    -0.0000001247689614
  27     0.0000001990027101
  28    -0.0000001029259196
  29    -0.0000002106051138
  30    -0.0000001641194754
  31     0.0000155107539543
  32     0.0000024462218972
  33     0.0000199045681251
  34     0.0000090357898347
  35    -0.0000405660744521
  36    -0.0000913211758528
  37    -0.0000681244946782
  38    -0.0000593350567314
  39     0.0000195229977892
  40     0.0001100044942921
  41    -0.0000578781597292
  42     0.0000190372343208
  43     0.0001073021075911
  44    -0.0000454611265668
  45     0.0000149212448581
  46     0.0000842750024974
  47    -0.0000087780023539
  48     0.0000028614950897
  49     0.0000162683129241
  50     0.0000003956213716
  51    -0.0000007522371224
  52     0.0000001673269592
  53    -0.0000002680256166
  54     0.0000000210784397
  55     0.0000018957947051
  56    -0.0000027658832848
  57     0.0000007404729349
  58    -0.0000002772286687
  59    -0.0000001656535900
  60     0.0000032698342527
  61    -0.0000040244959777
  62     0.0000012154811729
  63     0.0000004195655886
  64    -0.0000005193222319
  65    -0.0000002216995081
  66    -0.0000002642439780
  67    -0.0000000446268225
  68    -0.0000002964219771
  69     0.0000000964663185
  70     0.0000002419170979
  71    -0.0000001688643685
  72    -0.0000002356096336
  73    -0.0000006448603710
  74     0.0000000081971089
  75    -0.0000003518165528
  76     0.0000000757767854
  77     0.0000003518111148
  78    -0.0000002357501919
  79    -0.0000000892253351
  80    -0.0000000236321187
  81    -0.0000000337824723
  82    -0.0000000595499685
  83     0.0000000350919170
  84     0.0000000865368716
  85    -0.0000000657564535
  86    -0.0000000264830851
  87     0.0000000372726011
  88     0.0000176803443060
  89     0.0000386319939696
  90     0.0000366774397596
  91     0.0000000269937490
  92    -0.0000002938316399
  93    -0.0000013811139233
  94     0.0000002293908028
  95    -0.0000009376841753
  96    -0.0000060118363850
  97     0.0000003896644433
  98    -0.0000024752712211
  99    -0.0000079929514349
 100     0.0000027095516533
 101    -0.0000003745755203
 102     0.0000000934557432
 103     0.0000001613265432
 104    -0.0000005642547024
 105     0.0000000388552323
 106    -0.0000013023631914
 107     0.0000002522775923
 108    -0.0000002318784943
 109    -0.0000018308175901
 110     0.0000005591406735
 111     0.0000000937419841
 112    -0.0000000309537338
 113     0.0000002456187881
 114     0.0000001105326687
 115    -0.0000000445877162
 116     0.0000000356790019
 117     0.0000002990334792
 Ene=    0.366849
 Spin= Alpha
 Sym= 1->2
 Occup=     0.000044
   1     0.0000020223149604
   2     0.0000044231433679
   3     0.0000042121700280
   4     0.0000000028327549
   5     0.0000000192669274
   6     0.0000001629242290
   7     0.0000000004006918
   8     0.0000001200740045
   9     0.0000006866903866
  10    -0.0000000676417024
  11     0.0000000338055879
  12     0.0000010021868025
  13     0.0000001535653512
  14    -0.0000000344378625
  15    -0.0000000018501689
  16    -0.0000000411973314
  17    -0.0000000488817591
  18     0.0000000354231471
  19    -0.0000001456213149
  20     0.0000000222253214
  21    -0.0000000615660727
  22    -0.0000002020258082
  23     0.0000000825449689
  24     0.0000000197448150
  25    -0.0000000103536835
  26    -0.0000000144243199
  27     0.0000000230063488
  28    -0.0000000118990800
  29    -0.0000000243476818
  30    -0.0000000189735612
  31     0.0000017931706857
  32     0.0000002828033640
  33     0.0000023011317293
  34     0.0000010446115967
  35    -0.0000046897717366
  36    -0.0000105574787621
  37    -0.0000078757516961
  38    -0.0000068596203700
  39     0.0000022570187477
  40     0.0000127174240610
  41    -0.0000066911911044
  42     0.0000022008604615
  43     0.0000124050059423
  44    -0.0000052556799454
  45     0.0000017250184913
  46     0.0000097428832375
  47    -0.0000010148092250
  48     0.0000003308123574
  49     0.0000018807507404
  50     0.0000000457370832
  51    -0.0000000869647952
  52     0.0000000193443752
  53    -0.0000000309859659
  54     0.0000000024368395
  55     0.0000002191694576
  56    -0.0000003197588488
  57     0.0000000856047522
  58    -0.0000000320499125
  59    -0.0000000191509129
  60     0.0000003780197292
  61    -0.0000004652648254
  62     0.0000001405195995
  63     0.0000000485052344
  64    -0.0000000600379099
  65    -0.0000000256302856
  66    -0.0000000305487771
  67    -0.0000000051592288
  68    -0.0000000342688170
  69     0.0000000111523021
  70     0.0000000279676056
  71    -0.0000000195221082
  72    -0.0000000272384105
  73    -0.0000000745511621
  74     0.0000000009476525
  75    -0.0000000406728851
  76     0.0000000087604267
  77     0.0000000406722592
  78    -0.0000000272546543
  79    -0.0000000103151828
  80    -0.0000000027320670
  81    -0.0000000039055301
  82    -0.0000000068844666
  83     0.0000000040569142
  84     0.0000000100043746
  85    -0.0000000076019856
  86    -0.0000000030616632
  87     0.0000000043090183
  88     0.0000020439932467
  89     0.0000044661764527
  90     0.0000042402137971
  91     0.0000000031207020
  92    -0.0000000339693530
  93    -0.0000001596681258
  94     0.0000000265194639
  95    -0.0000001084039840
  96    -0.0000006950177814
  97     0.0000000450483770
  98    -0.0000002861616879
  99    -0.0000009240509592
 100     0.0000003132464190
 101    -0.0000000433040110
 102     0.0000000108042513
 103     0.0000000186506787
 104    -0.0000000652324865
 105     0.0000000044919826
 106    -0.0000001505638950
 107     0.0000000291653586
 108    -0.0000000268070416
 109    -0.0000002116575798
 110     0.0000000646412503
 111     0.0000000108373456
 112    -0.0000000035785056
 113     0.0000000283955500
 114     0.0000000127784876
 115    -0.0000000051547048
 116     0.0000000041247844
 117     0.0000000345707297
