
 Primary working directories    : /tmp
 Secondary working directories  : /tmp
 Wavefunction directory         : /users/tnorthey/wfu/
 Main file repository           : /tmp/

 SHA1      : c1fa73a58b863d85f8aab6c87b7659dc5dec4ab7
 NAME      : 2015.1.19
 ARCHNAME  : linux/x86_64
 FC        : /usr/bin/gfortran
 BLASLIB   : -L/gpfs/runtime/opt/intel/2017.0/mkl/lib/intel64 -lmkl_gf_ilp64 -lmkl_gnu_thread -lmkl_core
 id        : brownengin

 Nodes                       nprocs
 node1314.oscar.ccv.brown.edu    1

 Using customized tuning parameters: mindgm=1; mindgv=20; mindgc=4; mindgr=1; noblas=0; minvec=7
 default implementation of scratch files=df  

                                                                                 !!! chlorobenzene
 
 basis=6-311G**
 
 geometry={
    12
  HF-SCF000/6-311G**  ENERGY=-689.67630732
  Cl        -1.3993492135        0.0000000000       -0.8079145935
  C          0.1132237449        0.0000000000        0.0653698171
  C          0.0967734708        0.0000000000        1.4466206415
  C          1.2992794500        0.0000000000        2.1329460038
  C          2.4997168287        0.0000000000        1.4432122488
  C          2.4968250997        0.0000000000        0.0587361032
  C          1.3011969152        0.0000000000       -0.6395019466
  H         -0.8384921558        0.0000000000        1.9732974621
  H          1.2936814985        0.0000000000        3.2080385205
  H          3.4306001887        0.0000000000        1.9806580077
  H          3.4250835595        0.0000000000       -0.4836581156
  H          1.2896796132        0.0000000000       -1.7128041490
           }
 
 hf
 optg
 freq
 

 Variables initialized (889), CPU time= 0.00 sec
 Commands  initialized (702), CPU time= 0.01 sec, 572 directives.
 Default parameters read. Elapsed time= 0.05 sec

 Checking input...
 Passed
1


                                         ***  PROGRAM SYSTEM MOLPRO  ***
                                       Copyright, TTI GmbH Stuttgart, 2015
                                    Version 2015.1 linked Dec 11 2017 15:18:43


 **********************************************************************************************************************************
 LABEL *                                                                                 
  64 bit serial version                                                                  DATE: 26-Aug-22          TIME: 12:50:45  
 **********************************************************************************************************************************

 SHA1:             c1fa73a58b863d85f8aab6c87b7659dc5dec4ab7
 **********************************************************************************************************************************

 Variable memory set to    8000000 words,  buffer space   230000 words

 SETTING BASIS          =    6-311G**

Geometry recognized as XYZ



 Recomputing integrals since basis changed


 Using spherical harmonics

 Library entry CL     S 6-311G               selected for orbital group  1
 Library entry CL     P 6-311G               selected for orbital group  1
 Library entry CL     D 6-311G*              selected for orbital group  1
 Library entry C      S 6-311G               selected for orbital group  2
 Library entry C      P 6-311G               selected for orbital group  2
 Library entry C      D 6-311G*              selected for orbital group  2
 Library entry H      S 6-311G               selected for orbital group  3
 Library entry H      P 6-311G**             selected for orbital group  3


 PROGRAM * SEWARD (Integral evaluation for generally contracted gaussian basis sets)     Author: Roland Lindh, 1990

 Geometry written to block  1 of record 700


 Point group  Cs  



 ATOMIC COORDINATES

 NR  ATOM    CHARGE       X              Y              Z

   1  CL     17.00   -2.644386766    0.000000000   -1.526737314
   2  C       6.00    0.213961869    0.000000000    0.123531051
   3  C       6.00    0.182875356    0.000000000    2.733716819
   4  C       6.00    2.455282320    0.000000000    4.030683786
   5  C       6.00    4.723780195    0.000000000    2.727275890
   6  C       6.00    4.718315619    0.000000000    0.110995149
   7  C       6.00    2.458905804    0.000000000   -1.208483535
   8  H       1.00   -1.584520532    0.000000000    3.728991766
   9  H       1.00    2.444703725    0.000000000    6.062314201
  10  H       1.00    6.482894800    0.000000000    3.742901181
  11  H       1.00    6.472469881    0.000000000   -0.913981376
  12  H       1.00    2.437141257    0.000000000   -3.236730747

 Bond lengths in Bohr (Angstrom)

 1-2  3.300536713  2-3  2.610370876  2-7  2.610370880  3-4  2.616477923  3-8  2.028363982
     ( 1.746568812)     ( 1.381348780)     ( 1.381348782)     ( 1.384580490)     ( 1.073363995)

  4- 5  2.616286443   4- 9  2.031657956   5- 6  2.616286448   5-10  2.031250581   6- 7  2.616477921
       ( 1.384479163)       ( 1.075107091)       ( 1.384479166)       ( 1.074891517)       ( 1.384580489)

  6-11  2.031657956   7-12  2.028363983
       ( 1.075107091)       ( 1.073363995)

 Bond angles

  1-2-3  119.31765725   1-2-7  119.31765714   2-3-4  119.03304380   2-3-8  120.06754146

  2- 7- 6  119.03304377   2- 7-12  120.06754150   3- 2- 7  121.36468561   3- 4- 5  120.40428599

  3- 4- 9  119.41705324   4- 3- 8  120.89941474   4- 5- 6  119.76065486   4- 5-10  120.11967269

  5- 4- 9  120.17866078   5- 6- 7  120.40428597   5- 6-11  120.17866057   6- 5-10  120.11967245

  6- 7-12  120.89941472   7- 6-11  119.41705346

 NUCLEAR CHARGE:                   58
 NUMBER OF PRIMITIVE AOS:         281
 NUMBER OF SYMMETRY AOS:          274
 NUMBER OF CONTRACTIONS:          164   ( 122A'  +  42A"  )
 NUMBER OF CORE ORBITALS:          11   (  10A'  +   1A"  )
 NUMBER OF VALENCE ORBITALS:       33   (  26A'  +   7A"  )


 NUCLEAR REPULSION ENERGY  317.24708123


 Eigenvalues of metric

         1 0.189E-03 0.124E-02 0.211E-02 0.218E-02 0.263E-02 0.302E-02 0.723E-02 0.731E-02
         2 0.288E-01 0.407E-01 0.967E-01 0.110E+00 0.156E+00 0.183E+00 0.191E+00 0.209E+00


 Contracted 2-electron integrals neglected if value below      1.0D-11
 AO integral compression algorithm  1   Integral accuracy      1.0D-11

     153.354 MB (compressed) written to integral file ( 36.0%)


 NUMBER OF SORTED TWO-ELECTRON INTEGRALS:   48885039.     BUFFER LENGTH:  32768
 NUMBER OF SEGMENTS:   7  SEGMENT LENGTH:    7286653      RECORD LENGTH: 524288

 Memory used in sort:       7.84 MW

 SORT1 READ    53285498. AND WROTE    36284326. INTEGRALS IN    106 RECORDS. CPU TIME:     0.60 SEC, REAL TIME:     0.83 SEC
 SORT2 READ    36284326. AND WROTE    48885039. INTEGRALS IN    585 RECORDS. CPU TIME:     0.77 SEC, REAL TIME:     0.93 SEC

 FILE SIZES:   FILE 1:   173.5 MBYTE,  FILE 4:   444.6 MBYTE,   TOTAL:    618.1 MBYTE

 OPERATOR DM      FOR CENTER  0  COORDINATES:    0.000000    0.000000    0.000000


 **********************************************************************************************************************************
 DATASETS  * FILE   NREC   LENGTH (MB)   RECORD NAMES
              1      19      158.27       500      610      700      900      950      970     1000      129      960     1100   
                                          VAR    BASINP    GEOM    SYMINP    ZMAT    AOBASIS   BASIS     P2S    ABASIS      S 
                                         1400     1410     1200     1210     1080     1600     1650     1300     1700   
                                           T        V       H0       H01     AOSYM     SMH    MOLCAS    ERIS     OPER   

 PROGRAMS   *        TOTAL       INT
 CPU TIMES  *         6.71      6.64
 REAL TIME  *         7.36 SEC
 DISK USED  *       618.61 MB      
 **********************************************************************************************************************************


 PROGRAM * RHF-SCF (CLOSED SHELL)       Authors: W. Meyer, H.-J. Werner


 NUMBER OF ELECTRONS:      29+   29-
 CONVERGENCE THRESHOLDS:    1.00E-06 (Density)    1.16E-07 (Energy)
 MAX. NUMBER OF ITERATIONS:       60
 INTERPOLATION TYPE:            DIIS
 INTERPOLATION STEPS:              2 (START)      1 (STEP)
 LEVEL SHIFTS:                  0.00 (CLOSED)  0.00 (OPEN) 



 Orbital guess generated from atomic densities. Full valence occupancy:   36   8

 Molecular orbital dump at record        2100.2

 Initial occupancy:  24   5

 ITERATION    DDIFF          GRAD             ENERGY        2-EL.EN.            DIPOLE MOMENTS         DIIS   ORB.
    1      0.000D+00      0.000D+00      -689.60842346   1137.105815    0.53245    0.00000    0.30741    0    start
    2      0.000D+00      0.431D-02      -689.66441419   1135.578593    0.90791    0.00000    0.52418    1    diag
    3      0.488D-02      0.204D-02      -689.67452158   1135.725283    0.65102    0.00000    0.37587    2    diag
    4      0.228D-02      0.672D-03      -689.67616211   1136.079572    0.76671    0.00000    0.44266    3    diag
    5      0.940D-03      0.207D-03      -689.67629368   1135.895132    0.74069    0.00000    0.42764    4    diag
    6      0.237D-03      0.413D-04      -689.67630459   1135.903809    0.73989    0.00000    0.42718    5    diag
    7      0.933D-04      0.159D-04      -689.67630655   1135.908348    0.73928    0.00000    0.42682    6    diag
    8      0.318D-04      0.702D-05      -689.67630719   1135.907439    0.73887    0.00000    0.42659    7    diag
    9      0.185D-04      0.295D-05      -689.67630729   1135.908132    0.73874    0.00000    0.42651    8    diag
   10      0.598D-05      0.123D-05      -689.67630731   1135.908319    0.73893    0.00000    0.42662    9    orth
   11      0.336D-05      0.430D-06      -689.67630732   1135.908359    0.73896    0.00000    0.42664    9    diag
   12      0.104D-05      0.127D-06      -689.67630732   1135.908352    0.73899    0.00000    0.42666    9    diag
   13      0.322D-06      0.274D-07      -689.67630732   1135.908375    0.73899    0.00000    0.42665    0    orth

 Final occupancy:  24   5

 !RHF STATE 1.1 Energy               -689.676307315975
 Nuclear energy                       317.24708123
 One-electron energy                -1574.87757584
 Two-electron energy                  567.95418729
 Virial quotient                       -0.99998401
 !RHF STATE 1.1 Dipole moment           0.73898733     0.00000000     0.42665453
 Dipole moment /Debye                   1.87819542     0.00000000     1.08437663

 Orbital energies:

         1.1          2.1          3.1          4.1          5.1          6.1          7.1          8.1          9.1         10.1
   -104.837462   -11.303823   -11.248501   -11.248496   -11.247102   -11.246937   -11.243104   -10.564044    -8.032341    -8.029425

        11.1         12.1         13.1         14.1         15.1         16.1         17.1         18.1         19.1         20.1
     -1.196192    -1.122507    -1.037661    -1.001989    -0.851206    -0.824304    -0.717721    -0.652714    -0.650136    -0.608406

        21.1         22.1         23.1         24.1         25.1         26.1
     -0.592079    -0.519532    -0.512847    -0.455394     0.145372     0.177710

         1.2          2.2          3.2          4.2          5.2          6.2          7.2
     -8.029278    -0.547394    -0.470191    -0.354237    -0.339578     0.119333     0.120221

 HOMO      5.2    -0.339578 =      -9.2404eV
 LUMO      6.2     0.119333 =       3.2472eV
 LUMO-HOMO         0.458911 =      12.4876eV


 **********************************************************************************************************************************
 DATASETS  * FILE   NREC   LENGTH (MB)   RECORD NAMES
              1      19      158.27       500      610      700      900      950      970     1000      129      960     1100   
                                          VAR    BASINP    GEOM    SYMINP    ZMAT    AOBASIS   BASIS     P2S    ABASIS      S 
                                         1400     1410     1200     1210     1080     1600     1650     1300     1700   
                                           T        V       H0       H01     AOSYM     SMH    MOLCAS    ERIS     OPER   

              2       4        3.29       700     1000      520     2100   
                                         GEOM     BASIS   MCVARS     RHF  

 PROGRAMS   *        TOTAL        HF       INT
 CPU TIMES  *        11.16      4.45      6.64
 REAL TIME  *        12.18 SEC
 DISK USED  *       618.61 MB      
 **********************************************************************************************************************************


 PROGRAM * OPT (Geometry optimization)     Authors: F. Eckert and H.-J. Werner


 BFGS update of hessian

 *** Long output written to logfile /gpfs/home/tnorthey/molpro/chlorobenzene/chlorobenzene_freq_6-311Gpd.log ***


 Geometry optimization using default procedure for command HF-SCF

 Geometry written to block  1 of record 700

 Making model hessian for cartesian coordinates

 Entering Rational Function Geometry Optimization

 ITER.   ENERGY(OLD)    ENERGY(NEW)      DE          GRADMAX     GRADNORM    GRADRMS     STEPMAX     STEPLEN     STEPRMS   CPU-time
   1  -689.67630732  -689.67630732    -0.00000000  0.00002965  0.00004411  0.00000147  0.00004068  0.00007666  0.00002213     24.33

 END OF GEOMETRY OPTIMIZATION.

 Current geometry (xyz format, in Angstrom)

   12
 HF-SCF000/6-311G**  ENERGY=-689.67630732
 Cl        -1.3993541871        0.0000000000       -0.8079174643
 C          0.1132154637        0.0000000000        0.0653650352
 C          0.0967818358        0.0000000000        1.4466223508
 C          1.2992832017        0.0000000000        2.1329403002
 C          2.4997200398        0.0000000000        1.4432141024
 C          2.4968220363        0.0000000000        0.0587422045
 C          1.3012025786        0.0000000000       -0.6394955569
 H         -0.8384744990        0.0000000000        1.9732963591
 H          1.2936745313        0.0000000000        3.2080227821
 H          3.4305940663        0.0000000000        1.9806544731
 H          3.4250664464        0.0000000000       -0.4836562805
 H          1.2896874862        0.0000000000       -1.7127883057

 **********************************************************************************************************************************

 Geometry written to block  1 of record 700


 **********************************************************************************************************************************
 DATASETS  * FILE   NREC   LENGTH (MB)   RECORD NAMES
              1      19      158.27       500      610      700      900      950      970     1000      129      960     1100   
                                          VAR    BASINP    GEOM    SYMINP    ZMAT    AOBASIS   BASIS     P2S    ABASIS      S 
                                         1400     1410     1200     1210     1080     1600     1650     1300     1700   
                                           T        V       H0       H01     AOSYM     SMH    MOLCAS    ERIS     OPER   

              2       4        3.29       700     1000      520     2100   
                                         GEOM     BASIS   MCVARS     RHF  

 PROGRAMS   *        TOTAL      OPTG        HF       INT
 CPU TIMES  *        35.49     24.33      4.45      6.64
 REAL TIME  *        37.25 SEC
 DISK USED  *       621.47 MB      
 **********************************************************************************************************************************


 PROGRAM * HESSIAN

 Computing numerical hessian using default procedure for command HF-SCF

 Symmetry elements for unique displacements: Y  

 Using no symmetry in wavefunction calculations

 Running default procedure: HF-SCF000


 Numerically approximating hessian using central gradient differences

 Task list generated. Total number of displacements:     60

    6 tasks completed, CPU=3m 21s Elapsed=3m 21s
   12 tasks completed, CPU=6m 42s Elapsed=6m 42s
   18 tasks completed, CPU=10m 3s Elapsed=10m 3s
   24 tasks completed, CPU=13m 21s Elapsed=13m 22s
   30 tasks completed, CPU=16m 42s Elapsed=16m 42s
   36 tasks completed, CPU=19m 59s Elapsed=19m 59s
   42 tasks completed, CPU=23m 7s Elapsed=23m 7s
   48 tasks completed, CPU=26m 21s Elapsed=26m 21s
   54 tasks completed, CPU=29m 33s Elapsed=29m 33s
   60 tasks completed, CPU=32m 45s Elapsed=32m 45s

 Numerical HF-SCF000 hessian completed. CPU-time:  1965.38 sec, Elapsed:  1965.66 sec

 HF-SCF hessian saved to record  5300.2

 PROGRAM * FREQUENCIES (Calculation of harmonuc vibrational spectra for HF-SCF)


 Permanent Dipole Moment [debye]
   1-  3    1.878153    0.000000    1.084352

 Dipole Moment Norm    2.1687042 [debye]

 Dipole Moment Derivatives [debye/ang]
                   1             2             3             4             5             6             7             8
         1    -3.2569910     0.0000000    -1.6261711     4.6442327     0.0000000     2.6386777    -0.5377035     0.0000000
         2    -0.0000000    -0.3791537    -0.0000000     0.0000000    -0.4316102     0.0000000    -0.0000000    -0.4147777
         3    -1.6261444     0.0000000    -1.3788190     2.6387027     0.0000000     1.5973577    -1.0506381     0.0000000
                   9            10            11            12            13            14            15            16
         1    -0.7330449    -0.1504934     0.0000000    -0.1030182     0.2565317     0.0000000     0.4927252     0.5530522
         2    -0.0000000     0.0000000    -0.6162592    -0.0000000    -0.0000000    -0.6632780    -0.0000000    -0.0000000
         3    -0.7238158     0.1229033     0.0000000     0.7764735     0.4926069     0.0000000    -0.3122135    -0.5101098
                  17            18            19            20            21            22            23            24
         1     0.0000000    -0.2833228    -1.4497828     0.0000000    -0.5238301    -0.0970872     0.0000000     0.2483600
         2    -0.6162594    -0.0000000    -0.0000000    -0.4147757     0.0000000    -0.0000000     0.7314451    -0.0000000
         3     0.0000000     0.0730509    -0.2066196     0.0000000     0.1876498     0.2674400     0.0000000     0.2518586
                  25            26            27            28            29            30            31            32
         1     0.3014974     0.0000000    -0.0455437    -0.3061280     0.0000000    -0.3917246    -0.3450283     0.0000000
         2     0.0000000     0.6853806    -0.0000000     0.0000000     0.7021016    -0.0000000     0.0000000     0.6853809
         3    -0.0304011     0.0000000    -0.5162031    -0.3916841     0.0000000     0.1480884     0.3283425     0.0000000
                  33            34            35            36
         1     0.3426046     0.3880711     0.0000000    -0.0127595
         2     0.0000000    -0.0000000     0.7314447    -0.0000000
         3     0.1303862    -0.0333255     0.0000000    -0.2325911

 Projecting out rotations and translations

   Low Vibration      Wavenumber
        Nr             [1/cm] 
        1                0.00
        2                0.00
        3                0.00
        4                0.00
        5                0.00
        6                0.00

     Vibration        Wavenumber
        Nr             [1/cm] 
        1              207.03
        2              319.66
        3              444.97
        4              454.95
        5              524.92
        6              672.13
        7              759.33
        8              760.50
        9              833.26
       10              940.55
       11             1027.27
       12             1082.68
       13             1098.64
       14             1112.04
       15             1117.43
       16             1162.88
       17             1189.57
       18             1191.66
       19             1282.72
       20             1315.94
       21             1447.29
       22             1593.24
       23             1635.63
       24             1769.15
       25             1772.79
       26             3325.12
       27             3336.62
       28             3350.22
       29             3363.32
       30             3365.54

 FREQUENCIES * CALCULATION OF NORMAL MODES FOR HF-SCF


 Atomic Coordinates

  Nr  Atom  Charge       X              Y              Z

   1   CL   17.00   -2.644396165    0.000000000   -1.526742739
   2   C     6.00    0.213946219    0.000000000    0.123522015
   3   C     6.00    0.182891163    0.000000000    2.733720049
   4   C     6.00    2.455289409    0.000000000    4.030673007
   5   C     6.00    4.723786263    0.000000000    2.727279393
   6   C     6.00    4.718309830    0.000000000    0.111006678
   7   C     6.00    2.458916506    0.000000000   -1.208471460
   8   H     1.00   -1.584487166    0.000000000    3.728989681
   9   H     1.00    2.444690558    0.000000000    6.062284460
  10   H     1.00    6.482883230    0.000000000    3.742894502
  11   H     1.00    6.472437542    0.000000000   -0.913977909
  12   H     1.00    2.437156135    0.000000000   -3.236700807

 Frequencies dumped to record   5400.2

 Gradient norm at reference geometry: 0.44109D-04

 Molecule is not in standard orientation!
 Symmetry information for normal modes not available!

 Normal Modes

                              1 A         2 A         3 A         4 A         5 A  
 Wavenumbers [cm-1]          207.03      319.66      444.97      454.95      524.92
 Intensities [km/mol]          0.20        0.02        4.37        0.00       11.66
 Intensities [relative]        0.28        0.03        6.21        0.00       16.57
           GX1             -0.00000    -0.04427     0.11016    -0.00000    -0.00000
           GY1              0.06767     0.00000     0.00000     0.00000    -0.01498
           GZ1             -0.00000     0.07668     0.06360    -0.00000     0.00000
           GX2             -0.00000     0.06010     0.01977    -0.00000     0.00000
           GY2             -0.11947    -0.00000    -0.00000    -0.00000     0.18594
           GZ2             -0.00000    -0.10410     0.01141    -0.00000    -0.00000
           GX3              0.00000     0.00018    -0.06053     0.00000     0.00000
           GY3             -0.11943    -0.00000    -0.00000    -0.12172    -0.02274
           GZ3             -0.00000    -0.11104    -0.00271     0.00000    -0.00000
           GX4             -0.00000    -0.06126    -0.07533     0.00000    -0.00000
           GY4              0.01378     0.00000     0.00000     0.12211    -0.07871
           GZ4              0.00000    -0.02858    -0.01394     0.00000     0.00000
           GX5              0.00000    -0.02319    -0.09772     0.00000    -0.00000
           GY5              0.12446    -0.00000    -0.00000    -0.00000     0.11910
           GZ5              0.00000     0.04016    -0.05642     0.00000     0.00000
           GX6              0.00000     0.05538    -0.04974     0.00000     0.00000
           GY6              0.01378     0.00000    -0.00000    -0.12211    -0.07871
           GZ6              0.00000     0.03876    -0.05826     0.00000    -0.00000
           GX7              0.00000     0.09607    -0.03263     0.00000     0.00000
           GY7             -0.11943     0.00000     0.00000     0.12172    -0.02274
           GZ7              0.00000    -0.05568    -0.05107     0.00000    -0.00000
           GX8              0.00000    -0.03647    -0.08891     0.00000     0.00000
           GY8             -0.15793     0.00000    -0.00000    -0.26546    -0.19141
           GZ8              0.00000    -0.17801    -0.05474     0.00000    -0.00000
           GX9             -0.00000    -0.13564    -0.03605     0.00000     0.00000
           GY9              0.06016     0.00000     0.00000     0.26716    -0.25440
           GZ9              0.00000    -0.02933    -0.01429     0.00000     0.00000
           GX10             0.00000    -0.05314    -0.09816     0.00000    -0.00000
           GY10             0.27344    -0.00000    -0.00000    -0.00000     0.20121
           GZ10            -0.00000     0.09205    -0.05669     0.00000     0.00000
           GX11             0.00000     0.09322    -0.03041     0.00000     0.00000
           GY11             0.06016     0.00000    -0.00000    -0.26716    -0.25440
           GZ11            -0.00000     0.10281    -0.02408     0.00000     0.00000
           GX12             0.00000     0.17238    -0.09186     0.00000    -0.00000
           GY12            -0.15793     0.00000     0.00000     0.26546    -0.19140
           GZ12             0.00000    -0.05743    -0.04963     0.00000    -0.00000

                              6 A         7 A         8 A         9 A        10 A  
 Wavenumbers [cm-1]          672.13      759.33      760.50      833.26      940.55
 Intensities [km/mol]          0.29       28.43       25.17       70.34        0.00
 Intensities [relative]        0.41       40.42       35.79      100.00        0.00
           GX1             -0.00430    -0.04265     0.00000     0.00000    -0.00000
           GY1             -0.00000    -0.00000     0.00027    -0.00581    -0.00000
           GZ1              0.00746    -0.02462     0.00000     0.00000     0.00000
           GX2             -0.02821     0.10030    -0.00000    -0.00000     0.00000
           GY2             -0.00000     0.00000     0.10421     0.10839     0.00000
           GZ2              0.04883     0.05792    -0.00000    -0.00000     0.00000
           GX3             -0.12227    -0.01939     0.00000     0.00000    -0.00000
           GY3              0.00000    -0.00000    -0.07725    -0.05804    -0.07093
           GZ3              0.02155     0.10063    -0.00000    -0.00000    -0.00000
           GX4             -0.04033    -0.02225     0.00000     0.00000    -0.00000
           GY4             -0.00000     0.00000     0.10777    -0.02157    -0.06058
           GZ4             -0.13418     0.10465    -0.00000    -0.00000    -0.00000
           GX5              0.02815    -0.09665     0.00000     0.00000     0.00000
           GY5              0.00000    -0.00000    -0.08334    -0.07705     0.00000
           GZ5             -0.04875    -0.05581     0.00000     0.00000     0.00000
           GX6              0.13635     0.07953    -0.00000    -0.00000     0.00000
           GY6             -0.00000     0.00000     0.10777    -0.02157     0.06058
           GZ6             -0.03215    -0.07161     0.00000     0.00000    -0.00000
           GX7              0.04245     0.07747    -0.00000    -0.00000     0.00000
           GY7             -0.00000    -0.00000    -0.07725    -0.05804     0.07093
           GZ7              0.11668    -0.06708     0.00000     0.00000     0.00000
           GX8             -0.09066    -0.07139     0.00000     0.00000    -0.00000
           GY8              0.00000    -0.00000    -0.34407     0.18008     0.47107
           GZ8              0.07777     0.01098    -0.00000    -0.00000    -0.00000
           GX9              0.02395     0.12231    -0.00000    -0.00000     0.00000
           GY9             -0.00000     0.00000     0.02632     0.45227     0.41288
           GZ9             -0.13430     0.10646    -0.00000    -0.00000    -0.00000
           GX10            -0.05689    -0.09608     0.00000     0.00000     0.00000
           GY10             0.00000    -0.00000    -0.35036     0.46354    -0.00000
           GZ10             0.09857    -0.05544     0.00000     0.00000    -0.00000
           GX11             0.10429     0.15341    -0.00000    -0.00000    -0.00000
           GY11             0.00000     0.00000     0.02632     0.45227    -0.41288
           GZ11            -0.08792     0.05272    -0.00000    -0.00000    -0.00000
           GX12            -0.02199    -0.02618     0.00000     0.00000    -0.00000
           GY12             0.00000    -0.00000    -0.34407     0.18008    -0.47107
           GZ12             0.11741    -0.06729     0.00000     0.00000     0.00000

                             11 A        12 A        13 A        14 A        15 A  
 Wavenumbers [cm-1]         1027.27     1082.68     1098.64     1112.04     1117.43
 Intensities [km/mol]          3.14        3.16        0.00       18.86        0.05
 Intensities [relative]        4.47        4.50        0.00       26.82        0.07
           GX1              0.00000    -0.00151    -0.00000     0.00871     0.00000
           GY1             -0.00350    -0.00000    -0.00000     0.00000    -0.00053
           GZ1             -0.00000    -0.00087    -0.00000     0.00503     0.00000
           GX2              0.00000    -0.02196     0.00000    -0.06326    -0.00000
           GY2              0.04889    -0.00000    -0.00000    -0.00000    -0.00055
           GZ2              0.00000    -0.01266     0.00000    -0.03660    -0.00000
           GX3             -0.00000     0.13595     0.00000     0.00288    -0.00000
           GY3             -0.08713    -0.00000     0.07224     0.00000    -0.02859
           GZ3             -0.00000    -0.07067    -0.00000    -0.05571    -0.00000
           GX4              0.00000     0.00461     0.00000    -0.03952    -0.00000
           GY4              0.01339     0.00000    -0.08170    -0.00000     0.07510
           GZ4              0.00000     0.01526    -0.00000     0.14146     0.00000
           GX5              0.00000    -0.14461    -0.00000     0.05953     0.00000
           GY5              0.07815    -0.00000    -0.00000     0.00000    -0.09286
           GZ5              0.00000    -0.08346    -0.00000     0.03429     0.00000
           GX6              0.00000     0.01551    -0.00000     0.10278     0.00000
           GY6              0.01339    -0.00000     0.08170    -0.00000     0.07510
           GZ6             -0.00000    -0.00367     0.00000    -0.10485    -0.00000
           GX7             -0.00000     0.00680     0.00000    -0.04690    -0.00000
           GY7             -0.08713     0.00000    -0.07224     0.00000    -0.02859
           GZ7             -0.00000     0.15306     0.00000     0.03038     0.00000
           GX8             -0.00000     0.15524     0.00000    -0.09061    -0.00000
           GY8              0.48926     0.00000    -0.38984    -0.00000     0.18753
           GZ8             -0.00000    -0.05113     0.00000    -0.21403    -0.00000
           GX9             -0.00000     0.03520     0.00000    -0.24613    -0.00000
           GY9             -0.07378    -0.00000     0.44983     0.00000    -0.43972
           GZ9              0.00000     0.00828    -0.00000     0.14962     0.00000
           GX10            -0.00000    -0.15150    -0.00000     0.06958     0.00000
           GY10            -0.46432     0.00000     0.00000    -0.00000     0.52766
           GZ10             0.00000    -0.08732    -0.00000     0.04010    -0.00000
           GX11            -0.00000     0.02481     0.00000     0.00650    -0.00000
           GY11            -0.07378     0.00000    -0.44983     0.00000    -0.43972
           GZ11            -0.00000     0.02640     0.00000    -0.28795    -0.00000
           GX12             0.00000     0.03321    -0.00000    -0.23065    -0.00000
           GY12             0.48926    -0.00000     0.38984    -0.00000     0.18753
           GZ12            -0.00000     0.15999     0.00000     0.02858     0.00000

                             16 A        17 A        18 A        19 A        20 A  
 Wavenumbers [cm-1]         1162.88     1189.57     1191.66     1282.72     1315.94
 Intensities [km/mol]          1.13       49.03        1.34        0.01        0.39
 Intensities [relative]        1.60       69.71        1.91        0.01        0.56
           GX1             -0.00165    -0.02112     0.00053     0.00128    -0.00017
           GY1             -0.00000     0.00000     0.00000     0.00000     0.00000
           GZ1              0.00288    -0.01215    -0.00191     0.00074     0.00031
           GX2             -0.01032     0.17982    -0.04634    -0.00651     0.05367
           GY2             -0.00000    -0.00000    -0.00000    -0.00000    -0.00000
           GZ2              0.01771     0.10137     0.08884    -0.00363    -0.09314
           GX3             -0.09652     0.03155     0.02313    -0.02625     0.02741
           GY3              0.00000     0.00000     0.00000     0.00000     0.00000
           GZ3             -0.05321    -0.03818    -0.05877    -0.04504     0.06596
           GX4              0.07446    -0.03534     0.07691     0.05295    -0.04431
           GY4             -0.00000     0.00000     0.00000    -0.00000    -0.00000
           GZ4              0.05244    -0.04908    -0.03956    -0.00011     0.00626
           GX5             -0.00198     0.02942    -0.06886     0.00073     0.01691
           GY5              0.00000    -0.00000    -0.00000     0.00000     0.00000
           GZ5              0.00342     0.01362     0.12074     0.00041    -0.02940
           GX6             -0.08255    -0.05997    -0.00662     0.02640     0.01684
           GY6             -0.00000    -0.00000     0.00000    -0.00000    -0.00000
           GZ6             -0.03827    -0.00244    -0.08664     0.04586     0.04172
           GX7              0.09430    -0.01893     0.03848    -0.05207    -0.07090
           GY7              0.00000    -0.00000    -0.00000    -0.00000    -0.00000
           GZ7              0.05698     0.04847    -0.04747    -0.00024     0.00918
           GX8             -0.24009    -0.09358     0.09374    -0.22794    -0.07076
           GY8             -0.00000    -0.00000     0.00000    -0.00000    -0.00000
           GZ8             -0.29600    -0.28341     0.05616    -0.40099    -0.10470
           GX9              0.28618    -0.24680     0.09569     0.46506     0.43670
           GY9              0.00000    -0.00000    -0.00000     0.00000     0.00000
           GZ9              0.05845    -0.05417    -0.04405     0.00195     0.00955
           GX10             0.09869     0.03298    -0.28254     0.00098    -0.25449
           GY10            -0.00000     0.00000     0.00000    -0.00000    -0.00000
           GZ10            -0.17093     0.00558     0.49087    -0.00022     0.44068
           GX11            -0.19341    -0.17006    -0.01660     0.23505    -0.22593
           GY11             0.00000    -0.00000    -0.00000     0.00000     0.00000
           GZ11            -0.21828    -0.18257    -0.11255     0.40314    -0.37218
           GX12             0.37613    -0.28758    -0.10801    -0.46160     0.12509
           GY12             0.00000     0.00000     0.00000    -0.00000     0.00000
           GZ12             0.05993     0.06285    -0.05054     0.00306     0.00886

                             21 A        22 A        23 A        24 A        25 A  
 Wavenumbers [cm-1]         1447.29     1593.24     1635.63     1769.15     1772.79
 Intensities [km/mol]          0.28        9.87       51.91        2.85       26.48
 Intensities [relative]        0.39       14.03       73.80        4.05       37.64
           GX1              0.00145    -0.00142    -0.00335    -0.00073    -0.00030
           GY1             -0.00000     0.00000    -0.00000    -0.00000     0.00000
           GZ1             -0.00252     0.00246    -0.00194     0.00127    -0.00017
           GX2             -0.04565     0.04934     0.07258     0.06372     0.05958
           GY2             -0.00000     0.00000    -0.00000     0.00000    -0.00000
           GZ2              0.07901    -0.08528     0.04199    -0.11051     0.03425
           GX3              0.05466    -0.06912    -0.01626    -0.00633    -0.08828
           GY3              0.00000    -0.00000     0.00000    -0.00000    -0.00000
           GZ3              0.04272     0.00602    -0.09432     0.09266    -0.08815
           GX4              0.00787     0.08184    -0.08795     0.07219     0.12475
           GY4             -0.00000    -0.00000    -0.00000    -0.00000     0.00000
           GZ4             -0.01835     0.05243     0.03081    -0.05976     0.03218
           GX5              0.02727     0.04637     0.05502    -0.07668    -0.05762
           GY5              0.00000     0.00000     0.00000    -0.00000    -0.00000
           GZ5             -0.04725    -0.08015     0.03183     0.13296    -0.03309
           GX6              0.01193    -0.08639    -0.01711     0.01546     0.09027
           GY6             -0.00000     0.00000    -0.00000    -0.00000    -0.00000
           GZ6             -0.01600    -0.04485    -0.09145    -0.09261     0.09173
           GX7             -0.06427     0.02918    -0.08992    -0.07682    -0.12064
           GY7              0.00000    -0.00000     0.00000     0.00000     0.00000
           GZ7             -0.02597     0.06292     0.03296     0.05189    -0.03226
           GX8             -0.22432    -0.00637     0.19648    -0.10763     0.04436
           GY8             -0.00000     0.00000     0.00000     0.00000     0.00000
           GZ8             -0.45771     0.14634     0.25917    -0.06661     0.15557
           GX9             -0.27972    -0.29218     0.32661    -0.08952    -0.16671
           GY9              0.00000     0.00000     0.00000     0.00000    -0.00000
           GZ9             -0.02314     0.06398     0.04089    -0.07247     0.03590
           GX10            -0.11811    -0.23002     0.06994     0.10487    -0.06837
           GY10            -0.00000    -0.00000    -0.00000     0.00000     0.00000
           GZ10             0.20457     0.39863     0.03993    -0.18148    -0.03971
           GX11             0.15978     0.09100     0.19848     0.10763    -0.05197
           GY11            -0.00000     0.00000    -0.00000     0.00000    -0.00000
           GZ11             0.23051     0.28548     0.26178     0.04162    -0.16214
           GX12             0.50870    -0.12287     0.32310     0.11121     0.15724
           GY12            -0.00000    -0.00000    -0.00000    -0.00000    -0.00000
           GZ12            -0.03457     0.07875     0.04043     0.05998    -0.03922

                             26 A        27 A        28 A        29 A        30 A  
 Wavenumbers [cm-1]         3325.12     3336.62     3350.22     3363.32     3365.54
 Intensities [km/mol]          0.00       11.82       20.98       11.29        1.46
 Intensities [relative]        0.00       16.80       29.83       16.05        2.07
           GX1             -0.00000     0.00001     0.00008     0.00001     0.00024
           GY1              0.00000    -0.00000    -0.00000     0.00000     0.00000
           GZ1             -0.00000    -0.00002     0.00005    -0.00002     0.00014
           GX2              0.00066     0.00038    -0.00134    -0.00222    -0.00333
           GY2              0.00000     0.00000    -0.00000     0.00000    -0.00000
           GZ2              0.00038    -0.00068    -0.00079     0.00400    -0.00181
           GX3              0.00872    -0.01476    -0.02187     0.05078    -0.04489
           GY3             -0.00000    -0.00000     0.00000    -0.00000     0.00000
           GZ3             -0.00665     0.01085     0.01451    -0.02783     0.02496
           GX4              0.00115     0.00080     0.00396    -0.00250     0.00105
           GY4              0.00000     0.00000    -0.00000    -0.00000     0.00000
           GZ4              0.04261    -0.05611    -0.03109    -0.02069     0.02680
           GX5             -0.04495    -0.00189    -0.05462    -0.00149     0.01768
           GY5              0.00000     0.00000     0.00000     0.00000    -0.00000
           GZ5             -0.02593     0.00396    -0.03153     0.00150     0.01025
           GX6              0.03788     0.04806    -0.02488     0.01799     0.02435
           GY6             -0.00000    -0.00000    -0.00000    -0.00000     0.00000
           GZ6             -0.02054    -0.02869     0.01893    -0.00753    -0.01272
           GX7             -0.00142    -0.00202     0.00163    -0.00124    -0.00087
           GY7             -0.00000    -0.00000     0.00000    -0.00000    -0.00000
           GZ7              0.01093     0.01803    -0.02585    -0.05586    -0.05377
           GX8             -0.11677     0.18843     0.26284    -0.56497     0.49920
           GY8             -0.00000    -0.00000     0.00000    -0.00000    -0.00000
           GZ8              0.06821    -0.11000    -0.15159     0.31833    -0.28132
           GX9              0.00057    -0.00350    -0.00678     0.00202     0.00014
           GY9              0.00000    -0.00000     0.00000    -0.00000     0.00000
           GZ9             -0.49963     0.63915     0.34372     0.22231    -0.28591
           GX10             0.52824    -0.00047     0.60480     0.00652    -0.18884
           GY10             0.00000    -0.00000    -0.00000    -0.00000    -0.00000
           GZ10             0.30494    -0.00693     0.34916     0.00034    -0.10908
           GX11            -0.43698    -0.55020     0.29342    -0.18100    -0.25348
           GY11             0.00000     0.00000    -0.00000     0.00000     0.00000
           GZ11             0.25297     0.32170    -0.17720     0.10212     0.14639
           GX12             0.00071     0.00107     0.00010     0.00654     0.00623
           GY12             0.00000    -0.00000    -0.00000    -0.00000     0.00000
           GZ12            -0.13593    -0.21618     0.29949     0.62588     0.60011


 Normal Modes of low/zero frequencies

                                  1           2           3           4           5
 Wavenumbers [cm-1]            0.00        0.00        0.00        0.00        0.00
 Intensities [km/mol]          0.00        0.00        0.00        0.00        0.00
 Intensities [relative]        0.00        0.00        0.00        0.00        0.00
           GX1              0.00000     0.00000     0.00000     0.10830     0.00000
           GY1              0.03314     0.06385     0.04433    -0.00000     0.00433
           GZ1             -0.01638     0.08811     0.05621    -0.04548     0.02282
           GX2             -0.03085     0.01743     0.01059     0.08704     0.00476
           GY2              0.01686     0.00234     0.05394    -0.00000     0.04361
           GZ2              0.03706     0.05792     0.03787    -0.00867     0.01459
           GX3             -0.07966     0.04500     0.02735     0.05342     0.01228
           GY3              0.00627    -0.05756     0.14191    -0.00000    -0.03114
           GZ3              0.03648     0.05825     0.03806    -0.00907     0.01468
           GX4             -0.10390     0.05870     0.03567     0.03672     0.01601
           GY4             -0.00661    -0.10611     0.14905     0.00000     0.00051
           GZ4              0.07896     0.03425     0.02348     0.02020     0.00813
           GX5             -0.07953     0.04493     0.02731     0.05351     0.01226
           GY5             -0.00883    -0.09470     0.06910     0.00000     0.10559
           GZ5              0.12137     0.01029     0.00892     0.04942     0.00159
           GX6             -0.03062     0.01730     0.01051     0.08720     0.00472
           GY6              0.00190    -0.03436    -0.01849     0.00000     0.17942
           GZ6              0.12127     0.01034     0.00895     0.04935     0.00161
           GX7             -0.00595     0.00336     0.00204     0.10420     0.00092
           GY7              0.01483     0.01460    -0.02659    -0.00000     0.14879
           GZ7              0.07903     0.03421     0.02346     0.02025     0.00812
           GX8             -0.09826     0.05551     0.03374     0.04060     0.01514
           GY8              0.00809    -0.06598     0.20352    -0.00000    -0.11244
           GZ8              0.00343     0.07691     0.04941    -0.03183     0.01977
           GX9             -0.14189     0.08015     0.04871     0.01055     0.02187
           GY9             -0.01489    -0.15284     0.21730     0.00000    -0.05727
           GZ9              0.07876     0.03436     0.02355     0.02006     0.00816
           GX10            -0.09852     0.05566     0.03382     0.04042     0.01518
           GY10            -0.01885    -0.13255     0.07501     0.00000     0.12976
           GZ10             0.15426    -0.00829    -0.00237     0.07207    -0.00348
           GX11            -0.01146     0.00647     0.00393     0.10040     0.00177
           GY11             0.00025    -0.02515    -0.08089     0.00000     0.26116
           GZ11             0.15407    -0.00818    -0.00231     0.07194    -0.00345
           GX12             0.03197    -0.01806    -0.01098     0.13032    -0.00493
           GY12             0.02321     0.06152    -0.09421    -0.00000     0.20550
           GZ12             0.07862     0.03444     0.02360     0.01997     0.00818

                                  6
 Wavenumbers [cm-1]            0.00
 Intensities [km/mol]          0.00
 Intensities [relative]        0.00
           GX1              0.00000
           GY1              0.12727
           GZ1             -0.06029
           GX2             -0.00456
           GY2              0.06564
           GZ2             -0.05239
           GX3             -0.01178
           GY3              0.03470
           GZ3             -0.05248
           GX4             -0.01536
           GY4             -0.01411
           GZ4             -0.04620
           GX5             -0.01176
           GY5             -0.03160
           GZ5             -0.03992
           GX6             -0.00453
           GY6             -0.00005
           GZ6             -0.03994
           GX7             -0.00088
           GY7              0.04884
           GZ7             -0.04619
           GX8             -0.01453
           GY8              0.04857
           GZ8             -0.05736
           GX9             -0.02098
           GY9             -0.03839
           GZ9             -0.04622
           GX10            -0.01457
           GY10            -0.06953
           GZ10            -0.03506
           GX11            -0.00169
           GY11            -0.01337
           GZ11            -0.03509
           GX12             0.00473
           GY12             0.07355
           GZ12            -0.04625


 Zero point energy:  0.09672419 [H]    21228.51 [1/CM]      253.95 [KJ/MOL]
 Frequency information read from record  5400.2

 HF/6-311G** energy=   -689.676307317083

        OPTG(HF)        HF-SCF  
   -689.67630732   -689.67630732
 **********************************************************************************************************************************
 Molpro calculation terminated
 Variable memory released
