
 Primary working directories    : /tmp/tnorthey
 Secondary working directories  : /tmp/tnorthey
 Wavefunction directory         : /users/tnorthey/wfu/
 Main file repository           : /tmp/tnorthey/

 SHA1      : c1fa73a58b863d85f8aab6c87b7659dc5dec4ab7
 NAME      : 2015.1.19
 ARCHNAME  : linux/x86_64
 FC        : /usr/bin/gfortran
 BLASLIB   : -L/gpfs/runtime/opt/intel/2017.0/mkl/lib/intel64 -lmkl_gf_ilp64 -lmkl_gnu_thread -lmkl_core
 id        : brownengin

 Nodes                       nprocs
 login005.oscar.ccv.brown.edu    1

 Using customized tuning parameters: mindgm=1; mindgv=20; mindgc=4; mindgr=1; noblas=0; minvec=7
 default implementation of scratch files=df  

                                                                                 !!! furan cartesian coordinates (XYZ format)
 
 memory,1,m
                                                                                 !basis=sto-3g
 basis=6-311G*
 geomtyp=xyz
 geometry={
 9
  MP2/6-311G*  ENERGY=-229.39820538
  O          0.0771958171        0.0000000000        0.0499992915
  C          0.1629310734        0.0000000000        1.4067231460
  C          1.4717816057        0.0000000000        1.8084487733
  C          2.2509765852        0.0000000000        0.6082920560
  C          1.3513877961        0.0000000000       -0.4237997301
  H          1.4488781295        0.0000000000       -1.4987183967
  H          3.3279404899        0.0000000000        0.5189378557
  H          1.8284276023        0.0000000000        2.8285658894
  H         -0.7792820992        0.0000000000        1.9332111150
 }
 
 hf
 optg,method=diis
 frequencies
 
 

 Variables initialized (889), CPU time= 0.00 sec
 Commands  initialized (702), CPU time= 0.01 sec, 572 directives.
 Default parameters read. Elapsed time= 0.03 sec

 Checking input...
 Passed
1


                                         ***  PROGRAM SYSTEM MOLPRO  ***
                                       Copyright, TTI GmbH Stuttgart, 2015
                                    Version 2015.1 linked Dec 11 2017 15:18:43


 **********************************************************************************************************************************
 LABEL *                                                                                 
  64 bit serial version                                                                  DATE: 25-Aug-22          TIME: 12:38:06  
 **********************************************************************************************************************************

 SHA1:             c1fa73a58b863d85f8aab6c87b7659dc5dec4ab7
 **********************************************************************************************************************************

 Variable memory set to    1000000 words,  buffer space   230000 words

 SETTING BASIS          =    6-311G*
 SETTING GEOMTYP        =    XYZ


 Recomputing integrals since basis changed


 Using spherical harmonics

 Library entry O      S 6-311G               selected for orbital group  1
 Library entry O      P 6-311G               selected for orbital group  1
 Library entry O      D 6-311G*              selected for orbital group  1
 Library entry C      S 6-311G               selected for orbital group  2
 Library entry C      P 6-311G               selected for orbital group  2
 Library entry C      D 6-311G*              selected for orbital group  2
 Library entry H      S 6-311G               selected for orbital group  3


 PROGRAM * SEWARD (Integral evaluation for generally contracted gaussian basis sets)     Author: Roland Lindh, 1990

 Geometry written to block  1 of record 700


 Point group  Cs  



 ATOMIC COORDINATES

 NR  ATOM    CHARGE       X              Y              Z

   1  O       8.00    0.145878952    0.000000000    0.094484967
   2  C       6.00    0.307895106    0.000000000    2.658321479
   3  C       6.00    2.781264150    0.000000000    3.417472892
   4  C       6.00    4.253729259    0.000000000    1.149505390
   5  C       6.00    2.553752823    0.000000000   -0.800865422
   6  H       1.00    2.737982853    0.000000000   -2.832167308
   7  H       1.00    6.288896085    0.000000000    0.980650423
   8  H       1.00    3.455227407    0.000000000    5.345214856
   9  H       1.00   -1.472629741    0.000000000    3.653239548

 Bond lengths in Bohr (Angstrom)

 1-2  2.568950543  1-5  2.568950933  2-3  2.587250528  2-9  2.039639845  3-4  2.704039587
     ( 1.359430083)     ( 1.359430290)     ( 1.369114018)     ( 1.079330924)     ( 1.430916127)

 3-8  2.042159532  4-5  2.587250700  4-7  2.042159643  5-6  2.039639198
     ( 1.080664285)     ( 1.369114109)     ( 1.080664344)     ( 1.079330582)

 Bond angles

  1-2-3  110.67870219   1-2-9  115.57962110   1-5-4  110.67867653   1-5-6  115.57957865

  2-1-5  106.78140904   2-3-4  105.93059497   2-3-8  126.33310597   3-2-9  133.74167671

  3-4-5  105.93061726   3-4-7  127.73630938   4-3-8  127.73629906   4-5-6  133.74174481

  5-4-7  126.33307336

 NUCLEAR CHARGE:                   36
 NUMBER OF PRIMITIVE AOS:         180
 NUMBER OF SYMMETRY AOS:          175
 NUMBER OF CONTRACTIONS:          102   (  77A'  +  25A"  )
 NUMBER OF CORE ORBITALS:           5   (   5A'  +   0A"  )
 NUMBER OF VALENCE ORBITALS:       24   (  19A'  +   5A"  )


 NUCLEAR REPULSION ENERGY  160.67460433


 Eigenvalues of metric

         1 0.566E-03 0.375E-02 0.894E-02 0.123E-01 0.128E-01 0.177E-01 0.199E-01 0.210E-01
         2 0.840E-01 0.113E+00 0.181E+00 0.181E+00 0.232E+00 0.238E+00 0.329E+00 0.450E+00


 Contracted 2-electron integrals neglected if value below      1.0D-11
 AO integral compression algorithm  1   Integral accuracy      1.0D-11

     34.865 MB (compressed) written to integral file ( 50.3%)


 NUMBER OF SORTED TWO-ELECTRON INTEGRALS:    7491406.     BUFFER LENGTH:  32768
 NUMBER OF SEGMENTS:  16  SEGMENT LENGTH:     488660      RECORD LENGTH:  32768

 Memory used in sort:       0.55 MW

 SORT1 READ     8692655. AND WROTE     7148690. INTEGRALS IN    337 RECORDS. CPU TIME:     0.10 SEC, REAL TIME:     0.14 SEC
 SORT2 READ     7148690. AND WROTE     7491406. INTEGRALS IN    133 RECORDS. CPU TIME:     0.13 SEC, REAL TIME:     0.17 SEC

 FILE SIZES:   FILE 1:    54.4 MBYTE,  FILE 4:    88.4 MBYTE,   TOTAL:    142.8 MBYTE

 OPERATOR DM      FOR CENTER  0  COORDINATES:    0.000000    0.000000    0.000000


 **********************************************************************************************************************************
 DATASETS  * FILE   NREC   LENGTH (MB)   RECORD NAMES
              1      19       49.50       500      610      700      900      950      970     1000      129      960     1100   
                                          VAR    BASINP    GEOM    SYMINP    ZMAT    AOBASIS   BASIS     P2S    ABASIS      S 
                                         1400     1410     1200     1210     1080     1600     1650     1300     1700   
                                           T        V       H0       H01     AOSYM     SMH    MOLCAS    ERIS     OPER   

 PROGRAMS   *        TOTAL       INT
 CPU TIMES  *         1.36      1.29
 REAL TIME  *         1.53 SEC
 DISK USED  *       143.23 MB      
 **********************************************************************************************************************************


 PROGRAM * RHF-SCF (CLOSED SHELL)       Authors: W. Meyer, H.-J. Werner


 NUMBER OF ELECTRONS:      18+   18-
 CONVERGENCE THRESHOLDS:    1.00E-06 (Density)    1.00E-07 (Energy)
 MAX. NUMBER OF ITERATIONS:       60
 INTERPOLATION TYPE:            DIIS
 INTERPOLATION STEPS:              2 (START)      1 (STEP)
 LEVEL SHIFTS:                  0.00 (CLOSED)  0.00 (OPEN) 



 Orbital guess generated from atomic densities. Full valence occupancy:   24   5

 Molecular orbital dump at record        2100.2

 Initial occupancy:  15   3

 ITERATION    DDIFF          GRAD             ENERGY        2-EL.EN.            DIPOLE MOMENTS         DIIS   ORB.
    1      0.000D+00      0.000D+00      -228.61984306    478.294079   -0.05979    0.00000   -0.03882    0    start
    2      0.000D+00      0.622D-02      -228.66063249    477.867283    0.49329    0.00000    0.32027    1    diag
    3      0.505D-02      0.285D-02      -228.66816396    477.949342    0.14363    0.00000    0.09325    2    diag
    4      0.221D-02      0.104D-02      -228.66954693    478.135847    0.26849    0.00000    0.17432    3    diag
    5      0.951D-03      0.284D-03      -228.66963208    478.040330    0.25751    0.00000    0.16718    4    diag
    6      0.231D-03      0.831D-04      -228.66964790    478.062821    0.25797    0.00000    0.16749    5    diag
    7      0.893D-04      0.355D-04      -228.66965248    478.065963    0.25825    0.00000    0.16767    6    diag
    8      0.599D-04      0.977D-05      -228.66965286    478.062429    0.25807    0.00000    0.16755    7    diag
    9      0.184D-04      0.319D-05      -228.66965289    478.064023    0.25806    0.00000    0.16755    8    diag
   10      0.512D-05      0.535D-06      -228.66965289    478.063903    0.25804    0.00000    0.16753    9    orth
   11      0.950D-06      0.125D-06      -228.66965289    478.063921    0.25805    0.00000    0.16753    0    orth

 Final occupancy:  15   3

 !RHF STATE 1.1 Energy               -228.669652889743
 Nuclear energy                       160.67460433
 One-electron energy                 -628.37621796
 Two-electron energy                  239.03196073
 Virial quotient                       -1.00116283
 !RHF STATE 1.1 Dipole moment           0.25804568     0.00000000     0.16753474
 Dipole moment /Debye                   0.65584375     0.00000000     0.42580295

 Orbital energies:

         1.1          2.1          3.1          4.1          5.1          6.1          7.1          8.1          9.1         10.1
    -20.620140   -11.288153   -11.288106   -11.232103   -11.231121    -1.459411    -1.081851    -1.001972    -0.805886    -0.779391

        11.1         12.1         13.1         14.1         15.1         16.1         17.1
     -0.738098    -0.609493    -0.574318    -0.566986    -0.537788     0.166989     0.187974

         1.2          2.2          3.2          4.2          5.2
     -0.630673    -0.395059    -0.315600     0.156505     0.228638

 HOMO      3.2    -0.315600 =      -8.5879eV
 LUMO      4.2     0.156505 =       4.2587eV
 LUMO-HOMO         0.472105 =      12.8466eV


 **********************************************************************************************************************************
 DATASETS  * FILE   NREC   LENGTH (MB)   RECORD NAMES
              1      19       49.50       500      610      700      900      950      970     1000      129      960     1100   
                                          VAR    BASINP    GEOM    SYMINP    ZMAT    AOBASIS   BASIS     P2S    ABASIS      S 
                                         1400     1410     1200     1210     1080     1600     1650     1300     1700   
                                           T        V       H0       H01     AOSYM     SMH    MOLCAS    ERIS     OPER   

              2       4        3.03       700     1000      520     2100   
                                         GEOM     BASIS   MCVARS     RHF  

 PROGRAMS   *        TOTAL        HF       INT
 CPU TIMES  *         1.97      0.61      1.29
 REAL TIME  *         2.24 SEC
 DISK USED  *       143.23 MB      
 **********************************************************************************************************************************


 PROGRAM * OPT (Geometry optimization)     Authors: F. Eckert and H.-J. Werner


 BFGS update of hessian

 *** Long output written to logfile /gpfs/home/tnorthey/molpro/freq/furan_hf_freq.log ***


 Geometry optimization using default procedure for command HF-SCF

 Geometry written to block  1 of record 700

 Making model hessian for cartesian coordinates

 DIIS interpolation in the subspace of the gradients

 Entering Rational Function Geometry Optimization

 ITER.   ENERGY(OLD)    ENERGY(NEW)      DE          GRADMAX     GRADNORM    GRADRMS     STEPMAX     STEPLEN     STEPRMS   CPU-time
   1  -228.66965289  -228.67251506    -0.00286217  0.03662724  0.06164896  0.00293566  0.07389961  0.10031682  0.03343894      5.09
   2  -228.67251506  -228.67274505    -0.00022998  0.01241761  0.01961010  0.00093381  0.02774588  0.03612955  0.01204318     10.12
   3  -228.67274505  -228.67275353    -0.00000848  0.00284728  0.00360088  0.00017147  0.00422389  0.00559257  0.00186419     15.18
   4  -228.67275353  -228.67275429    -0.00000076  0.00105955  0.00114041  0.00005431  0.00123053  0.00163896  0.00054632     20.24
   5  -228.67275429  -228.67275430    -0.00000000  0.00005199  0.00006740  0.00000321  0.00007350  0.00012581  0.00004194     25.10

 END OF GEOMETRY OPTIMIZATION.

 Current geometry (xyz format, in Angstrom)

    9
 HF-SCF000/6-311G*  ENERGY=-228.67275430
 O          0.0975451220        0.0000000000        0.0632111295
 C          0.1776325803        0.0000000000        1.4022686086
 C          1.4543702690        0.0000000000        1.8037164678
 C          2.2395684396        0.0000000000        0.5943132140
 C          1.3533011656        0.0000000000       -0.4085575786
 H          1.4559923521        0.0000000000       -1.4717326154
 H          3.3059054286        0.0000000000        0.5060176349
 H          1.8076585987        0.0000000000        2.8136956948
 H         -0.7517369560        0.0000000000        1.9287274445

 **********************************************************************************************************************************

 Geometry written to block  1 of record 700


 **********************************************************************************************************************************
 DATASETS  * FILE   NREC   LENGTH (MB)   RECORD NAMES
              1      19       49.69       500      610      700      900      950      970     1000      129      960     1100   
                                          VAR    BASINP    GEOM    SYMINP    ZMAT    AOBASIS   BASIS     P2S    ABASIS      S 
                                         1400     1410     1200     1210     1080     1600     1650     1300     1700   
                                           T        V       H0       H01     AOSYM     SMH    MOLCAS    ERIS     OPER   

              2       4        3.03       700     1000      520     2100   
                                         GEOM     BASIS   MCVARS     RHF  

 PROGRAMS   *        TOTAL      OPTG        HF       INT
 CPU TIMES  *        27.08     25.11      0.61      1.29
 REAL TIME  *        28.40 SEC
 DISK USED  *       145.88 MB      
 **********************************************************************************************************************************


 PROGRAM * HESSIAN

 Computing numerical hessian using default procedure for command HF-SCF

 Symmetry elements for unique displacements: Y  

 Using no symmetry in wavefunction calculations

 Running default procedure: HF-SCF000


 Numerically approximating hessian using central gradient differences

 Task list generated. Total number of displacements:     45

    5 tasks completed, CPU=32s Elapsed=32s
   10 tasks completed, CPU=1m 4s Elapsed=1m 4s
   15 tasks completed, CPU=1m 36s Elapsed=1m 36s
   20 tasks completed, CPU=2m 7s Elapsed=2m 8s
   25 tasks completed, CPU=2m 39s Elapsed=2m 41s
   30 tasks completed, CPU=3m 10s Elapsed=3m 12s
   35 tasks completed, CPU=3m 40s Elapsed=3m 43s
   40 tasks completed, CPU=4m 11s Elapsed=4m 13s
   45 tasks completed, CPU=4m 41s Elapsed=4m 44s

 Numerical HF-SCF000 hessian completed. CPU-time:   281.77 sec, Elapsed:   284.21 sec

 HF-SCF hessian saved to record  5300.2

 PROGRAM * FREQUENCIES (Calculation of harmonuc vibrational spectra for HF-SCF)


 Permanent Dipole Moment [debye]
   1-  3    0.596695    0.000000    0.387401

 Dipole Moment Norm    0.7114240 [debye]

 Dipole Moment Derivatives [debye/ang]
                   1             2             3             4             5             6             7             8
         1    -4.1051104     0.0000000    -1.2665616     1.4982846     0.0000000     1.2490451    -0.7663197     0.0000000
         2    -0.0000000    -0.9375031     0.0000000    -0.0000000    -0.2286194    -0.0000000    -0.0000000    -1.1067783
         3    -1.2664408     0.0000000    -2.9766108     0.7343347     0.0000000     1.8473408     0.0812164     0.0000000
                   9            10            11            12            13            14            15            16
         1    -0.1636656     0.3791334     0.0000000    -0.4290712     2.5268048     0.0000000     0.2760671     0.3794213
         2    -0.0000000     0.0000000    -1.1067776     0.0000000    -0.0000000    -0.2286209     0.0000000    -0.0000000
         3     0.6432134    -0.6740099     0.0000000    -0.5021824     0.7906780     0.0000000     0.8186503    -0.0160336
                  17            18            19            20            21            22            23            24
         1     0.0000000     0.1183130    -0.3196074     0.0000000     0.2361715     0.4594414     0.0000000    -0.1974841
         2     0.9294857    -0.0000000    -0.0000000     0.8743991     0.0000000     0.0000000     0.8743991    -0.0000000
         3     0.0000000    -0.1846315     0.1501445     0.0000000     0.4432160    -0.1122515     0.0000000    -0.3369177
                  25            26            27
         1    -0.0531781     0.0000000     0.1760356
         2     0.0000000     0.9294857     0.0000000
         3     0.3112917     0.0000000     0.2483359

 Projecting out rotations and translations

   Low Vibration      Wavenumber
        Nr             [1/cm] 
        1                0.00
        2                0.00
        3                0.00
        4                0.00
        5                0.00
        6                0.00

     Vibration        Wavenumber
        Nr             [1/cm] 
        1              658.85
        2              660.58
        3              845.41
        4              852.86
        5              957.69
        6              963.17
        7              984.70
        8              997.68
        9             1082.94
       10             1154.06
       11             1156.99
       12             1260.70
       13             1308.56
       14             1408.40
       15             1540.75
       16             1669.42
       17             1751.30
       18             3407.27
       19             3419.90
       20             3450.34
       21             3456.80

 FREQUENCIES * CALCULATION OF NORMAL MODES FOR HF-SCF


 Atomic Coordinates

  Nr  Atom  Charge       X              Y              Z

   1   O     8.00    0.184333565    0.000000000    0.119451723
   2   C     6.00    0.335676928    0.000000000    2.649903623
   3   C     6.00    2.748361492    0.000000000    3.408530131
   4   C     6.00    4.232170988    0.000000000    1.123089207
   5   C     6.00    2.557368567    0.000000000   -0.772061930
   6   H     1.00    2.751426785    0.000000000   -2.781171572
   7   H     1.00    6.247255854    0.000000000    0.956234744
   8   H     1.00    3.415979678    0.000000000    5.317114261
   9   H     1.00   -1.420576965    0.000000000    3.644766639

 Frequencies dumped to record   5400.2

 Gradient norm at reference geometry: 0.67403D-04

 Molecule is not in standard orientation!
 Symmetry information for normal modes not available!

 Normal Modes

                              1 A         2 A         3 A         4 A         5 A  
 Wavenumbers [cm-1]          658.85      660.58      845.41      852.86      957.69
 Intensities [km/mol]         38.57        0.00        0.00      108.11       19.85
 Intensities [relative]       35.67        0.00        0.00      100.00       18.36
           GX1             -0.00000     0.00000     0.00000     0.00000     0.14004
           GY1              0.14474     0.00000    -0.00000     0.05884    -0.00000
           GZ1              0.00000    -0.00000     0.00000     0.00000     0.09084
           GX2             -0.00000     0.00000    -0.00000    -0.00000    -0.08364
           GY2             -0.11620    -0.08896     0.08859    -0.07181    -0.00000
           GZ2              0.00000    -0.00000     0.00000    -0.00000     0.07224
           GX3              0.00000     0.00000    -0.00000    -0.00000    -0.06679
           GY3              0.05402     0.14499     0.04316    -0.03931     0.00000
           GZ3             -0.00000     0.00000    -0.00000     0.00000    -0.02111
           GX4              0.00000    -0.00000    -0.00000     0.00000    -0.04680
           GY4              0.05403    -0.14499    -0.04316    -0.03931    -0.00000
           GZ4             -0.00000     0.00000    -0.00000    -0.00000    -0.05237
           GX5             -0.00000    -0.00000     0.00000    -0.00000     0.03188
           GY5             -0.11620     0.08896    -0.08859    -0.07181     0.00000
           GZ5              0.00000     0.00000    -0.00000    -0.00000    -0.10598
           GX6              0.00000     0.00000    -0.00000    -0.00000    -0.16714
           GY6             -0.36355     0.25135     0.50120     0.32513    -0.00000
           GZ6              0.00000     0.00000    -0.00000    -0.00000    -0.12927
           GX7             -0.00000    -0.00000     0.00000     0.00000    -0.03109
           GY7             -0.04422    -0.29674     0.35936     0.53198    -0.00000
           GZ7             -0.00000    -0.00000     0.00000    -0.00000     0.15772
           GX8              0.00000     0.00000     0.00000    -0.00000     0.13172
           GY8             -0.04423     0.29674    -0.35937     0.53198    -0.00000
           GZ8             -0.00000    -0.00000    -0.00000     0.00000    -0.09231
           GX9             -0.00000    -0.00000    -0.00000    -0.00000    -0.18607
           GY9             -0.36353    -0.25138    -0.50120     0.32513     0.00000
           GZ9             -0.00000    -0.00000     0.00000    -0.00000    -0.10039

                              6 A         7 A         8 A         9 A        10 A  
 Wavenumbers [cm-1]          963.17      984.70      997.68     1082.94     1154.06
 Intensities [km/mol]          1.23        0.79        0.00       34.25       47.62
 Intensities [relative]        1.14        0.73        0.00       31.68       44.05
           GX1             -0.02869    -0.00000    -0.00000    -0.04679    -0.07829
           GY1             -0.00000     0.00372     0.00000     0.00000     0.00000
           GZ1              0.04451    -0.00000    -0.00000    -0.03043    -0.04943
           GX2             -0.09912     0.00000     0.00000     0.00000    -0.04133
           GY2             -0.00000    -0.07992    -0.06085    -0.00000     0.00000
           GZ2              0.01513    -0.00000     0.00000     0.03183     0.13615
           GX3             -0.04351     0.00000     0.00000     0.04640    -0.04031
           GY3              0.00000     0.06781     0.09411    -0.00000    -0.00000
           GZ3             -0.15528     0.00000    -0.00000    -0.09690     0.06980
           GX4              0.15946    -0.00000     0.00000    -0.06963     0.04782
           GY4              0.00000     0.06781    -0.09411     0.00000     0.00000
           GZ4             -0.02358     0.00000     0.00000     0.08181    -0.06468
           GX5              0.02658     0.00000     0.00000     0.02905     0.10843
           GY5             -0.00000    -0.07992     0.06085    -0.00000    -0.00000
           GZ5              0.09647    -0.00000     0.00000    -0.01285    -0.09568
           GX6             -0.08643     0.00000     0.00000     0.16449     0.29700
           GY6              0.00000     0.48076    -0.32175     0.00000     0.00000
           GZ6              0.08889    -0.00000     0.00000     0.00116    -0.08799
           GX7              0.16768    -0.00000     0.00000    -0.03834     0.05623
           GY7             -0.00000    -0.36593     0.49282    -0.00000    -0.00000
           GZ7              0.03156    -0.00000     0.00000     0.54130    -0.06305
           GX8             -0.09683     0.00000     0.00000     0.47926    -0.04590
           GY8             -0.00000    -0.36593    -0.49282     0.00000     0.00000
           GZ8             -0.14049     0.00000    -0.00000    -0.25545     0.08043
           GX9             -0.04642     0.00000     0.00000     0.06785     0.04630
           GY9              0.00000     0.48076     0.32175    -0.00000    -0.00000
           GZ9              0.11491     0.00000     0.00000     0.14973     0.31187

                             11 A        12 A        13 A        14 A        15 A  
 Wavenumbers [cm-1]         1156.99     1260.70     1308.56     1408.40     1540.75
 Intensities [km/mol]          0.10        0.69       24.98        0.02        2.99
 Intensities [relative]        0.09        0.63       23.10        0.02        2.77
           GX1             -0.04792     0.05928    -0.08571    -0.01093    -0.02476
           GY1              0.00000    -0.00000    -0.00000    -0.00000    -0.00000
           GZ1              0.07604     0.03855     0.13195     0.01683    -0.01610
           GX2              0.07628     0.03603    -0.01563     0.02588    -0.04605
           GY2             -0.00000     0.00000     0.00000     0.00000     0.00000
           GZ2             -0.07140     0.00520    -0.11058     0.06255     0.07233
           GX3             -0.02623    -0.03866     0.00298     0.05447     0.11992
           GY3              0.00000    -0.00000    -0.00000    -0.00000     0.00000
           GZ3             -0.00929    -0.10687     0.01290    -0.03200    -0.07837
           GX4              0.01779    -0.11340    -0.01288     0.00698    -0.02277
           GY4              0.00000     0.00000    -0.00000     0.00000    -0.00000
           GZ4              0.02192     0.00818     0.00257    -0.06276     0.14146
           GX5              0.03145     0.01957     0.10733    -0.06759     0.04732
           GY5             -0.00000     0.00000     0.00000    -0.00000     0.00000
           GZ5             -0.09633     0.03085    -0.03075     0.00183    -0.07150
           GX6             -0.26606     0.42719     0.30323     0.50349    -0.22481
           GY6             -0.00000     0.00000     0.00000     0.00000    -0.00000
           GZ6             -0.12957     0.07709    -0.00883     0.05682    -0.11160
           GX7              0.05632    -0.15080    -0.02988     0.04079    -0.06211
           GY7             -0.00000    -0.00000     0.00000    -0.00000    -0.00000
           GZ7              0.45615    -0.27522    -0.23605     0.36389    -0.30023
           GX8             -0.43836    -0.31200     0.22814    -0.34917    -0.29947
           GY8              0.00000     0.00000    -0.00000    -0.00000    -0.00000
           GZ8              0.13190    -0.02597    -0.06876     0.11077     0.06540
           GX9              0.22571     0.24408    -0.11567    -0.25670    -0.19336
           GY9             -0.00000    -0.00000     0.00000     0.00000     0.00000
           GZ9              0.18275     0.35862    -0.28110    -0.43666    -0.15982

                             16 A        17 A        18 A        19 A        20 A  
 Wavenumbers [cm-1]         1669.42     1751.30     3407.27     3419.90     3450.34
 Intensities [km/mol]         33.75        1.98        5.38        3.90        9.02
 Intensities [relative]       31.22        1.83        4.98        3.60        8.34
           GX1             -0.04099     0.00310     0.00071     0.00049    -0.00016
           GY1              0.00000     0.00000     0.00000     0.00000    -0.00000
           GZ1             -0.02661    -0.00478    -0.00109     0.00031     0.00026
           GX2              0.12658    -0.11266     0.01243    -0.01609     0.05417
           GY2             -0.00000    -0.00000    -0.00000     0.00000    -0.00000
           GZ2              0.07819    -0.05002    -0.00844     0.01230    -0.02490
           GX3             -0.08220     0.13748     0.02132    -0.01778    -0.01226
           GY3              0.00000     0.00000     0.00000    -0.00000     0.00000
           GZ3             -0.03895     0.03397     0.05304    -0.05393    -0.01695
           GX4             -0.06903    -0.08697    -0.05683    -0.05683     0.01994
           GY4             -0.00000    -0.00000     0.00000     0.00000    -0.00000
           GZ4             -0.05922    -0.11173     0.00208     0.00571     0.00429
           GX5              0.12296     0.09153     0.00262     0.00471     0.00065
           GY5              0.00000     0.00000    -0.00000     0.00000     0.00000
           GZ5              0.08380     0.08253    -0.01466    -0.01973    -0.05852
           GX6             -0.32221    -0.15041    -0.02120    -0.02672    -0.05722
           GY6             -0.00000    -0.00000     0.00000    -0.00000     0.00000
           GZ6              0.06012     0.08884     0.19400     0.24895     0.63447
           GX7             -0.08557    -0.08673     0.64169     0.62399    -0.18735
           GY7              0.00000    -0.00000    -0.00000     0.00000    -0.00000
           GZ7             -0.00236     0.19445    -0.04833    -0.05374     0.01013
           GX8             -0.03692    -0.14230    -0.21806     0.20358     0.06873
           GY8             -0.00000     0.00000    -0.00000    -0.00000    -0.00000
           GZ8             -0.07722     0.15835    -0.60898     0.58837     0.18013
           GX9             -0.07611    -0.02001    -0.16993     0.21614    -0.56629
           GY9              0.00000    -0.00000    -0.00000    -0.00000     0.00000
           GZ9             -0.31865     0.17348     0.09909    -0.12547     0.31604

                             21 A  
 Wavenumbers [cm-1]         3456.80
 Intensities [km/mol]          0.00
 Intensities [relative]        0.00
           GX1             -0.00042
           GY1             -0.00000
           GZ1             -0.00027
           GX2             -0.05229
           GY2              0.00000
           GZ2              0.02668
           GX3              0.01103
           GY3             -0.00000
           GZ3              0.02297
           GX4              0.02583
           GY4              0.00000
           GZ4              0.00081
           GX5              0.00311
           GY5             -0.00000
           GZ5             -0.05974
           GX6             -0.05633
           GY6              0.00000
           GZ6              0.62546
           GX7             -0.24510
           GY7              0.00000
           GZ7              0.01727
           GX8             -0.08276
           GY8             -0.00000
           GZ8             -0.22775
           GX9              0.53779
           GY9              0.00000
           GZ9             -0.30005


 Normal Modes of low/zero frequencies

                                  1           2           3           4           5
 Wavenumbers [cm-1]            0.00        0.00        0.00        0.00        0.00
 Intensities [km/mol]          0.00        0.00        0.00        0.00        0.00
 Intensities [relative]        0.00        0.00        0.00        0.00        0.00
           GX1              0.00000    -0.00000    -0.00000     0.13479     0.00000
           GY1              0.07535    -0.01582     0.02874    -0.00000     0.17669
           GZ1              0.12022     0.05693     0.02651    -0.03976    -0.05150
           GX2              0.08736    -0.06243     0.00269     0.07775    -0.04419
           GY2              0.08001     0.00249    -0.07984    -0.00000     0.10679
           GZ2              0.11499     0.06066     0.02635    -0.03635    -0.04886
           GX3              0.11355    -0.08114     0.00350     0.06065    -0.05744
           GY3              0.02058    -0.00242    -0.00784    -0.00000    -0.02867
           GZ3              0.03170     0.12019     0.02378     0.01804    -0.00673
           GX4              0.03465    -0.02476     0.00107     0.11217    -0.01753
           GY4             -0.02527    -0.02609     0.16181     0.00000    -0.04392
           GZ4             -0.01953     0.15679     0.02220     0.05149     0.01919
           GX5             -0.03078     0.02199    -0.00095     0.15489     0.01557
           GY5              0.01136    -0.03294     0.17416    -0.00000     0.08396
           GZ5              0.03829     0.11547     0.02398     0.01373    -0.01006
           GX6             -0.10014     0.07156    -0.00309     0.20018     0.05065
           GY6             -0.00041    -0.04886     0.27426    -0.00000     0.12426
           GZ6              0.03159     0.12026     0.02378     0.01811    -0.00667
           GX7              0.02889    -0.02064     0.00089     0.11593    -0.01461
           GY7             -0.07761    -0.03619     0.25841     0.00000    -0.13726
           GZ7             -0.08910     0.20650     0.02005     0.09692     0.05437
           GX8              0.17944    -0.12823     0.00553     0.01762    -0.09076
           GY8              0.00988     0.00896    -0.06529    -0.00000    -0.10817
           GZ8              0.00865     0.13666     0.02307     0.03309     0.00493
           GX9              0.12171    -0.08697     0.00375     0.05532    -0.06156
           GY9              0.12851     0.01767    -0.20273    -0.00000     0.16713
           GZ9              0.17562     0.01734     0.02822    -0.07594    -0.07953

                                  6
 Wavenumbers [cm-1]            0.00
 Intensities [km/mol]          0.00
 Intensities [relative]        0.00
           GX1              0.00000
           GY1             -0.01013
           GZ1             -0.01777
           GX2             -0.01575
           GY2              0.12065
           GZ2             -0.01683
           GX3             -0.02048
           GY3              0.20283
           GZ3             -0.00181
           GX4             -0.00625
           GY4              0.11412
           GZ4              0.00743
           GX5              0.00555
           GY5             -0.01217
           GZ5             -0.00300
           GX6              0.01806
           GY6             -0.11031
           GZ6             -0.00179
           GX7             -0.00521
           GY7              0.14224
           GZ7              0.01997
           GX8             -0.03236
           GY8              0.31152
           GZ8              0.00234
           GX9             -0.02195
           GY9              0.13912
           GZ9             -0.02777


 Zero point energy:  0.07515306 [H]    16494.19 [1/CM]      197.31 [KJ/MOL]
 Frequency information read from record  5400.2

 HF/6-311G* energy=   -228.672754296512

        OPTG(HF)        HF-SCF  
   -228.67275430   -228.66965289
 **********************************************************************************************************************************
 Molpro calculation terminated
 Variable memory released
