[Molden Format]
[Atoms] Angs
 h       1                    1 -2.270000000000e-01 -8.250000000000e-01 -2.666000000000e+00
 o       2                    8  1.860000000000e-01 -1.470000000000e-01 -3.258000000000e+00
 h       3                    1  3.000000000000e-02  7.140000000000e-01 -2.796000000000e+00
[GTO]
1
 s           3
      1.301070100000e+01      3.348548481299e-02
      1.962257200000e+00      2.347218708812e-01
      4.445379600000e-01      8.137702852596e-01
 s           1
      1.219496200000e-01      1.000000000000e+00
 p           1
      8.000000000000e-01      1.000000000000e+00

2
 s           5
      2.266176778500e+03     -5.389350392174e-03
      3.408701019100e+02     -4.023472138896e-02
      7.736313516700e+01     -1.800818420553e-01
      2.147964494000e+01     -4.682885765765e-01
      6.658943312400e+00     -4.469261716019e-01
 s           1
      8.097597566800e-01      1.000000000000e+00
 s           1
      2.553077223400e-01      1.000000000000e+00
 p           3
      1.772150431700e+01      6.263024876316e-02
      3.863550544000e+00      3.333113848235e-01
      1.048092088300e+00      7.414863830812e-01
 p           1
      2.764154441100e-01      1.000000000000e+00
 d           1
      1.200000000000e+00      1.000000000000e+00

3
 s           3
      1.301070100000e+01      3.348548481299e-02
      1.962257200000e+00      2.347218708812e-01
      4.445379600000e-01      8.137702852596e-01
 s           1
      1.219496200000e-01      1.000000000000e+00
 p           1
      8.000000000000e-01      1.000000000000e+00


[5D]
[7F]
[9G]
[MO]
 Ene=    0.356765
 Spin= Alpha
 Sym= 0->0
 Occup=     0.948323
   1    -0.2986142862049388
   2    -0.0140989844287661
   3    -0.0197706519587795
   4    -0.0213651411293569
   5     0.0307063988579626
   6     0.0001899986289607
   7     0.0004247300774857
   8     0.0003563350635399
   9     0.0866842024942984
  10     0.5147938169964188
  11    -0.0447655536874222
  12     0.0354180525772845
  13     0.2094762395192724
  14    -0.0184745608023583
  15    -0.0027305200406161
  16     0.0039626952305288
  17     0.0182184305608850
  18    -0.0048999580174193
  19    -0.0094421148111080
  20     0.2976460048359629
  21     0.0139208697208372
  22     0.0110310055924953
  23    -0.0310866434012810
  24    -0.0263103044684396
 Ene=    0.448288
 Spin= Alpha
 Sym= 0->1
 Occup=     0.955438
   1     0.0551936148872715
   2    -0.0047420754203143
   3     0.0245309222145997
   4     0.0062820935314037
   5     0.0029699735304730
   6     0.1687856150291210
   7     0.3592258321681085
   8     0.1401018727208471
   9     0.4303553705251620
  10    -0.0385582389628425
  11     0.3663262108417294
  12     0.2989312244078642
  13    -0.0356385643748616
  14     0.1686392185629906
  15     0.0101932816055801
  16     0.0069495086015707
  17    -0.0004621023574356
  18    -0.0080810123895635
  19     0.0034196826491563
  20     0.0520244987704553
  21    -0.0050602098021268
  22     0.0212318947817568
  23    -0.0129447498384297
  24     0.0048123187764841
 Ene=    0.607444
 Spin= Alpha
 Sym= 0->2
 Occup=     0.967170
   1     0.2486544596611661
   2     0.0289715985623374
   3     0.0068482200303128
   4     0.0398721437850242
   5    -0.0042359884761370
   6    -0.1006869190994794
   7    -0.2321517673972529
   8    -0.2500267240779361
   9    -0.2655393041811771
  10     0.1681951758931081
  11     0.4962272010395515
  12    -0.1459764119851646
  13     0.0485317519604137
  14     0.2624679483918593
  15     0.0112028261315744
  16    -0.0133372326283657
  17     0.0017376568837951
  18     0.0030252956809046
  19    -0.0008346194892650
  20     0.1321235269395487
  21     0.0179314165059683
  22    -0.0087532309875701
  23    -0.0276112243127402
  24     0.0091913464930403
 Ene=    0.084910
 Spin= Alpha
 Sym= 1->0
 Occup=     0.696893
   1     0.4162912593222630
   2     0.0141646620251031
   3     0.0183063178799415
   4     0.0787667992382376
   5    -0.0167221912692466
   6    -0.1422302463312431
   7    -0.5393257653644683
   8    -0.0135935667787311
   9     0.2360176286857715
  10    -0.1020784469597935
  11    -0.4648543479628061
  12    -0.0380205984837105
  13     0.0106066568290736
  14     0.0563695658461766
  15     0.0108738265004882
  16    -0.0108536112881318
  17     0.0045683288753291
  18     0.0048871437580661
  19    -0.0030783360705522
  20     0.4511414216555840
  21     0.0172795893995404
  22    -0.0078533111667351
  23    -0.0858364837620671
  24    -0.0051875768586127
 Ene=    0.176433
 Spin= Alpha
 Sym= 1->1
 Occup=     0.000888
   1     0.0002794989437766
   2     0.0000131964592468
   3     0.0000185050635673
   4     0.0000199974838049
   5    -0.0000287407751659
   6    -0.0000001778358255
   7    -0.0000003975404850
   8    -0.0000003335247362
   9    -0.0000811352446680
  10    -0.0004818400696032
  11     0.0000418999555398
  12    -0.0000331508193212
  13    -0.0001960669350572
  14     0.0000172919397250
  15     0.0000025557299168
  16    -0.0000037090292680
  17    -0.0000170522053049
  18     0.0000045862946067
  19     0.0000088376921263
  20    -0.0002785926470467
  21    -0.0000130297463444
  22    -0.0000103248724368
  23     0.0000290966791180
  24     0.0000246260901526
 Ene=    0.335589
 Spin= Alpha
 Sym= 1->2
 Occup=     0.000061
   1    -0.0000191940024437
   2    -0.0000009062390895
   3    -0.0000012707963406
   4    -0.0000013732851795
   5     0.0000019737123166
   6     0.0000000122125251
   7     0.0000000273004216
   8     0.0000000229039892
   9     0.0000055717920889
  10     0.0000330893537804
  11    -0.0000028773908358
  12     0.0000022765627735
  13     0.0000134644845467
  14    -0.0000011874874911
  15    -0.0000001755093783
  16     0.0000002547097862
  17     0.0000011710243469
  18    -0.0000003149541410
  19    -0.0000006069099249
  20     0.0000191317641646
  21     0.0000008947904391
  22     0.0000007090389076
  23    -0.0000019981532362
  24    -0.0000016911449590
