[Molden Format]
[Atoms] Angs
 o       1                    8  9.754512200000e-02  0.000000000000e+00  6.321112950000e-02
 c       2                    6  1.776325803000e-01  0.000000000000e+00  1.402268608600e+00
 c       3                    6  1.454370269000e+00  0.000000000000e+00  1.803716467800e+00
 c       4                    6  2.239568439600e+00  0.000000000000e+00  5.943132140000e-01
 c       5                    6  1.353301165600e+00  0.000000000000e+00 -4.085575786000e-01
 h       6                    1  1.455992352100e+00  0.000000000000e+00 -1.471732615400e+00
 h       7                    1  3.305905428600e+00  0.000000000000e+00  5.060176349000e-01
 h       8                    1  1.807658598700e+00  0.000000000000e+00  2.813695694800e+00
 h       9                    1 -7.517369560000e-01  0.000000000000e+00  1.928727444500e+00
[GTO]
1
 s           6
      2.703238263100e+04      5.722733521115e-04
      4.052387139200e+03      4.435323349299e-03
      9.223272271000e+02      2.302010770604e-02
      2.612407098900e+02      9.282249066793e-02
      8.535464135100e+01      2.937850000967e-01
      3.103503524500e+01      6.740160450164e-01
 s           2
      1.226086072800e+01      6.383993702551e-01
      4.998707600500e+00      3.953458712572e-01
 s           1
      1.170310815800e+00      1.000000000000e+00
 s           1
      4.647474099400e-01      1.000000000000e+00
 s           1
      1.850453635700e-01      1.000000000000e+00
 p           4
      6.327495480100e+01      1.201833222262e-02
      1.462704937900e+01      8.300542179006e-02
      4.450122345600e+00      3.199174392596e-01
      1.527579964700e+00      7.071554291610e-01
 p           1
      5.293511794300e-01      1.000000000000e+00
 p           1
      1.747842127000e-01      1.000000000000e+00
 d           1
      2.314000000000e+00      1.000000000000e+00
 d           1
      6.450000000000e-01      1.000000000000e+00
 f           1
      1.428000000000e+00      1.000000000000e+00

2
 s           6
      1.357534968200e+04      6.064550360359e-04
      2.035233368000e+03      4.697908888498e-03
      4.632256235900e+02      2.433247764755e-02
      1.312001959800e+02      9.739996830776e-02
      4.285301589100e+01      3.019558425378e-01
      1.558418576600e+01      6.623360913787e-01
 s           2
      6.206713850800e+00      6.559530853995e-01
      2.576489652700e+00      3.758563328514e-01
 s           1
      5.769633941900e-01      1.000000000000e+00
 s           1
      2.297283135800e-01      1.000000000000e+00
 s           1
      9.516444002800e-02      1.000000000000e+00
 p           4
      3.469723224400e+01      1.132722000311e-02
      7.958262282600e+00      7.616965920209e-02
      2.378082688300e+00      3.019225220268e-01
      8.143320818300e-01      7.278502734955e-01
 p           1
      2.888754725300e-01      1.000000000000e+00
 p           1
      1.005682367100e-01      1.000000000000e+00
 d           1
      1.097000000000e+00      1.000000000000e+00
 d           1
      3.180000000000e-01      1.000000000000e+00
 f           1
      7.610000000000e-01      1.000000000000e+00

3
 s           6
      1.357534968200e+04      6.064550360359e-04
      2.035233368000e+03      4.697908888498e-03
      4.632256235900e+02      2.433247764755e-02
      1.312001959800e+02      9.739996830776e-02
      4.285301589100e+01      3.019558425378e-01
      1.558418576600e+01      6.623360913787e-01
 s           2
      6.206713850800e+00      6.559530853995e-01
      2.576489652700e+00      3.758563328514e-01
 s           1
      5.769633941900e-01      1.000000000000e+00
 s           1
      2.297283135800e-01      1.000000000000e+00
 s           1
      9.516444002800e-02      1.000000000000e+00
 p           4
      3.469723224400e+01      1.132722000311e-02
      7.958262282600e+00      7.616965920209e-02
      2.378082688300e+00      3.019225220268e-01
      8.143320818300e-01      7.278502734955e-01
 p           1
      2.888754725300e-01      1.000000000000e+00
 p           1
      1.005682367100e-01      1.000000000000e+00
 d           1
      1.097000000000e+00      1.000000000000e+00
 d           1
      3.180000000000e-01      1.000000000000e+00
 f           1
      7.610000000000e-01      1.000000000000e+00

4
 s           6
      1.357534968200e+04      6.064550360359e-04
      2.035233368000e+03      4.697908888498e-03
      4.632256235900e+02      2.433247764755e-02
      1.312001959800e+02      9.739996830776e-02
      4.285301589100e+01      3.019558425378e-01
      1.558418576600e+01      6.623360913787e-01
 s           2
      6.206713850800e+00      6.559530853995e-01
      2.576489652700e+00      3.758563328514e-01
 s           1
      5.769633941900e-01      1.000000000000e+00
 s           1
      2.297283135800e-01      1.000000000000e+00
 s           1
      9.516444002800e-02      1.000000000000e+00
 p           4
      3.469723224400e+01      1.132722000311e-02
      7.958262282600e+00      7.616965920209e-02
      2.378082688300e+00      3.019225220268e-01
      8.143320818300e-01      7.278502734955e-01
 p           1
      2.888754725300e-01      1.000000000000e+00
 p           1
      1.005682367100e-01      1.000000000000e+00
 d           1
      1.097000000000e+00      1.000000000000e+00
 d           1
      3.180000000000e-01      1.000000000000e+00
 f           1
      7.610000000000e-01      1.000000000000e+00

5
 s           6
      1.357534968200e+04      6.064550360359e-04
      2.035233368000e+03      4.697908888498e-03
      4.632256235900e+02      2.433247764755e-02
      1.312001959800e+02      9.739996830776e-02
      4.285301589100e+01      3.019558425378e-01
      1.558418576600e+01      6.623360913787e-01
 s           2
      6.206713850800e+00      6.559530853995e-01
      2.576489652700e+00      3.758563328514e-01
 s           1
      5.769633941900e-01      1.000000000000e+00
 s           1
      2.297283135800e-01      1.000000000000e+00
 s           1
      9.516444002800e-02      1.000000000000e+00
 p           4
      3.469723224400e+01      1.132722000311e-02
      7.958262282600e+00      7.616965920209e-02
      2.378082688300e+00      3.019225220268e-01
      8.143320818300e-01      7.278502734955e-01
 p           1
      2.888754725300e-01      1.000000000000e+00
 p           1
      1.005682367100e-01      1.000000000000e+00
 d           1
      1.097000000000e+00      1.000000000000e+00
 d           1
      3.180000000000e-01      1.000000000000e+00
 f           1
      7.610000000000e-01      1.000000000000e+00

6
 s           3
      3.406134100000e+01      2.543930720888e-02
      5.123574600000e+00      1.900859489038e-01
      1.164662600000e+00      8.524411301104e-01
 s           1
      3.272304100000e-01      1.000000000000e+00
 s           1
      1.030724100000e-01      1.000000000000e+00
 p           1
      1.407000000000e+00      1.000000000000e+00
 p           1
      3.880000000000e-01      1.000000000000e+00
 d           1
      1.057000000000e+00      1.000000000000e+00

7
 s           3
      3.406134100000e+01      2.543930720888e-02
      5.123574600000e+00      1.900859489038e-01
      1.164662600000e+00      8.524411301104e-01
 s           1
      3.272304100000e-01      1.000000000000e+00
 s           1
      1.030724100000e-01      1.000000000000e+00
 p           1
      1.407000000000e+00      1.000000000000e+00
 p           1
      3.880000000000e-01      1.000000000000e+00
 d           1
      1.057000000000e+00      1.000000000000e+00

8
 s           3
      3.406134100000e+01      2.543930720888e-02
      5.123574600000e+00      1.900859489038e-01
      1.164662600000e+00      8.524411301104e-01
 s           1
      3.272304100000e-01      1.000000000000e+00
 s           1
      1.030724100000e-01      1.000000000000e+00
 p           1
      1.407000000000e+00      1.000000000000e+00
 p           1
      3.880000000000e-01      1.000000000000e+00
 d           1
      1.057000000000e+00      1.000000000000e+00

9
 s           3
      3.406134100000e+01      2.543930720888e-02
      5.123574600000e+00      1.900859489038e-01
      1.164662600000e+00      8.524411301104e-01
 s           1
      3.272304100000e-01      1.000000000000e+00
 s           1
      1.030724100000e-01      1.000000000000e+00
 p           1
      1.407000000000e+00      1.000000000000e+00
 p           1
      3.880000000000e-01      1.000000000000e+00
 d           1
      1.057000000000e+00      1.000000000000e+00


[5D]
[7F]
[9G]
[MO]
 Ene=    0.294214
 Spin= Alpha
 Sym= 0->0
 Occup=     0.955308
   1    -0.0000000008695988
   2    -0.0000000021234117
   3     0.0000000032141415
   4     0.0000000042221509
   5     0.0000000026459563
   6    -0.0000000043553999
   7    -0.0000000000040098
   8    -0.0000000028258385
   9    -0.0000000039587977
  10     0.0000000001310324
  11    -0.0000000025684402
  12    -0.0000000015689675
  13    -0.0000000002507139
  14    -0.0000000010180880
  15     0.0000000000131549
  16    -0.0000000001052260
  17    -0.0047994839169481
  18    -0.0000000000711074
  19     0.0031160375509328
  20     0.0000000001042321
  21    -0.0000000004520710
  22    -0.0156583415393381
  23    -0.0000000002227318
  24     0.0101660889854132
  25    -0.0000000000030046
  26    -0.0000000000117051
  27    -0.0025090436959508
  28    -0.0000000000285362
  29    -0.0014139036364247
  30    -0.0000000000358317
  31     0.0019434968993474
  32    -0.0000000002843903
  33    -0.0000000006518456
  34     0.0000000011154072
  35     0.0000000008821695
  36     0.0000000010816884
  37    -0.0000000033972222
  38    -0.2364683608087857
  39     0.0000000019495054
  40    -0.0000000030165505
  41    -0.2447710654142204
  42     0.0000000014004739
  43    -0.0000000001388435
  44    -0.1181083492305050
  45     0.0000000004475594
  46    -0.0000000000280556
  47     0.0000000000225259
  48    -0.0016146152045426
  49    -0.0000000000059339
  50    -0.0086072066014231
  51     0.0000000001194763
  52    -0.0000000002158435
  53    -0.0024058012290233
  54    -0.0000000001376830
  55    -0.0165392087523590
  56     0.0000000000039883
  57    -0.0000000000463697
  58    -0.0004847171028406
  59     0.0000000000289548
  60    -0.0019486818783420
  61    -0.0000000000695729
  62    -0.0042040345036547
  63     0.0000000019260602
  64     0.0000000042441180
  65    -0.0000000063237030
  66    -0.0000000061381056
  67    -0.0000000013278069
  68    -0.0000000026433371
  69    -0.1758535023005733
  70     0.0000000010122980
  71    -0.0000000027704973
  72    -0.1794381435777083
  73     0.0000000002178852
  74    -0.0000000002031959
  75    -0.0850741981321711
  76    -0.0000000003677955
  77    -0.0000000003128574
  78     0.0000000000638236
  79     0.0002480277427736
  80    -0.0000000001422517
  81     0.0127603674498336
  82    -0.0000000007179287
  83     0.0000000000951541
  84     0.0019927288302612
  85     0.0000000000005515
  86     0.0247400689241419
  87    -0.0000000000495825
  88    -0.0000000000828988
  89     0.0018237169498716
  90     0.0000000001091067
  91    -0.0035726253915423
  92    -0.0000000000105708
  93    -0.0038175423123403
  94     0.0000000019266589
  95     0.0000000042454951
  96    -0.0000000063258949
  97    -0.0000000061411953
  98    -0.0000000013268474
  99    -0.0000000001519200
 100     0.1758534897834761
 101    -0.0000000028262901
 102    -0.0000000009292094
 103     0.1794381301831590
 104    -0.0000000026197265
 105    -0.0000000004196585
 106     0.0850741907112857
 107    -0.0000000000357419
 108    -0.0000000000650923
 109     0.0000000001912046
 110    -0.0115550497794189
 111    -0.0000000002853762
 112    -0.0054193479767507
 113     0.0000000001200196
 114     0.0000000005262745
 115    -0.0217879327614297
 116    -0.0000000004834220
 117    -0.0118881453920338
 118    -0.0000000000920787
 119     0.0000000001127835
 120     0.0010627835646056
 121     0.0000000000067921
 122     0.0051992348315642
 123     0.0000000000105932
 124     0.0015816684116333
 125    -0.0000000002844078
 126    -0.0000000006518270
 127     0.0000000011152253
 128     0.0000000008821958
 129     0.0000000010810581
 130     0.0000000003995270
 131     0.2364683659863203
 132    -0.0000000038990859
 133     0.0000000000523356
 134     0.2447710715339388
 135    -0.0000000033274576
 136     0.0000000003526792
 137     0.1181083539469507
 138    -0.0000000003102190
 139    -0.0000000000115489
 140     0.0000000000309089
 141     0.0072052076993966
 142    -0.0000000000155167
 143     0.0049775458086469
 144     0.0000000000096472
 145    -0.0000000002727048
 146     0.0141287401336941
 147    -0.0000000000743512
 148     0.0089281566824167
 149    -0.0000000000547347
 150     0.0000000000273972
 151     0.0022302569870276
 152    -0.0000000000619087
 153     0.0029323335466040
 154    -0.0000000000163431
 155     0.0028519449467175
 156     0.0000000018693366
 157     0.0000000022799749
 158     0.0000000003712371
 159    -0.0000000000207546
 160     0.0043766610660873
 161     0.0000000001810663
 162    -0.0000000000630252
 163     0.0099943311515984
 164     0.0000000001978539
 165     0.0000000000360523
 166    -0.0000000000179860
 167     0.0015067754186468
 168     0.0000000000000683
 169     0.0001436022248434
 170    -0.0000000019975215
 171    -0.0000000021407085
 172    -0.0000000003101969
 173     0.0000000001972327
 174     0.0033468365389690
 175    -0.0000000000610774
 176     0.0000000001115048
 177     0.0070670350625449
 178    -0.0000000001227345
 179     0.0000000000062008
 180     0.0000000000365473
 181    -0.0003080705631434
 182    -0.0000000000356103
 183    -0.0013038897028483
 184    -0.0000000019963037
 185    -0.0000000021394043
 186    -0.0000000003100443
 187     0.0000000000244401
 188    -0.0033468367752839
 189     0.0000000002049098
 190    -0.0000000000667259
 191    -0.0070670356364055
 192     0.0000000001517597
 193    -0.0000000000508015
 194     0.0000000000072138
 195     0.0010656724965145
 196    -0.0000000000026885
 197     0.0008120210271481
 198     0.0000000018679985
 199     0.0000000022781203
 200     0.0000000003711336
 201     0.0000000001568408
 202    -0.0043766609349941
 203    -0.0000000000926048
 204     0.0000000001549688
 205    -0.0099943308762343
 206    -0.0000000001380241
 207     0.0000000000025753
 208    -0.0000000000352106
 209     0.0004820032298601
 210     0.0000000000193934
 211    -0.0014348053980098
 Ene=    0.367873
 Spin= Alpha
 Sym= 0->1
 Occup=     0.939366
   1     0.0000000000015822
   2     0.0000000000038436
   3    -0.0000000000056695
   4    -0.0000000000076131
   5    -0.0000000000034109
   6     0.0000000003925980
   7    -0.1467965817701738
   8    -0.0000000005984820
   9     0.0000000003622660
  10    -0.1399978563015716
  11    -0.0000000005523375
  12     0.0000000000123594
  13    -0.1159807149079187
  14    -0.0000000000162463
  15    -0.0000000000154863
  16    -0.0000000000078969
  17     0.0001779066450581
  18     0.0000000000089820
  19     0.0002740212591117
  20    -0.0000000000626817
  21    -0.0000000000318801
  22    -0.0011441095606865
  23     0.0000000000362722
  24    -0.0017622169291155
  25    -0.0000000000057713
  26     0.0000000000161653
  27    -0.0005426132942577
  28    -0.0000000000111639
  29     0.0009711890273099
  30     0.0000000000041474
  31     0.0000060341740929
  32     0.0000000003619654
  33     0.0000000008069120
  34    -0.0000000012825862
  35    -0.0000000014259904
  36    -0.0000000001773355
  37     0.0000000015261830
  38     0.1056771616914554
  39    -0.0000000003490628
  40     0.0000000011250876
  41     0.1063862156726039
  42    -0.0000000003318155
  43     0.0000000002792477
  44     0.0345855907385165
  45    -0.0000000002254990
  46    -0.0000000000206867
  47     0.0000000000672876
  48     0.0074182855600749
  49    -0.0000000000406778
  50     0.0111943505645094
  51     0.0000000000174705
  52     0.0000000001036580
  53     0.0143574813056494
  54    -0.0000000000509094
  55     0.0225766536770995
  56     0.0000000000150856
  57     0.0000000000156465
  58    -0.0033567027168695
  59    -0.0000000000096844
  60     0.0002209127521150
  61     0.0000000000144645
  62     0.0047862999005364
  63    -0.0000000001324505
  64    -0.0000000002691237
  65     0.0000000003256459
  66     0.0000000003286626
  67     0.0000000000140012
  68    -0.0000000002977312
  69     0.2326172458726018
  70     0.0000000001250158
  71    -0.0000000002951371
  72     0.2308565903930837
  73     0.0000000002265589
  74    -0.0000000000844039
  75     0.0829369961222935
  76     0.0000000001168274
  77    -0.0000000000000561
  78     0.0000000000444708
  79    -0.0097177568271875
  80     0.0000000000118018
  81    -0.0018673227289500
  82     0.0000000000096124
  83     0.0000000001377830
  84    -0.0230577113211023
  85    -0.0000000000012463
  86    -0.0047479840701260
  87     0.0000000000132538
  88    -0.0000000000068588
  89     0.0035318982013094
  90    -0.0000000000097303
  91    -0.0009216986164629
  92     0.0000000000006642
  93     0.0037180452141298
  94     0.0000000001257985
  95     0.0000000002543420
  96    -0.0000000003031888
  97    -0.0000000003079049
  98    -0.0000000000091308
  99     0.0000000000002553
 100     0.2326172490300992
 101     0.0000000003415859
 102    -0.0000000000894399
 103     0.2308565932585952
 104     0.0000000003781813
 105    -0.0000000000738917
 106     0.0829369969600267
 107     0.0000000001268644
 108     0.0000000000208637
 109    -0.0000000000354159
 110     0.0022488970285583
 111    -0.0000000000227424
 112    -0.0096366049718790
 113     0.0000000000922667
 114    -0.0000000000882159
 115     0.0050461986402307
 116    -0.0000000000562781
 117    -0.0229942881711035
 118    -0.0000000000130558
 119    -0.0000000000018544
 120     0.0033936865876997
 121     0.0000000000119433
 122    -0.0009995839325828
 123     0.0000000000003445
 124     0.0038251035899867
 125    -0.0000000003621418
 126    -0.0000000008072691
 127     0.0000000012829733
 128     0.0000000014278967
 129     0.0000000001745331
 130    -0.0000000003025215
 131     0.1056771697398822
 132    -0.0000000015336705
 133    -0.0000000001536313
 134     0.1063862235935640
 135    -0.0000000011592343
 136     0.0000000000914680
 137     0.0345855935654081
 138    -0.0000000003488157
 139     0.0000000000682827
 140    -0.0000000000430364
 141     0.0072066567461809
 142     0.0000000000132913
 143     0.0113317494884988
 144     0.0000000001087028
 145    -0.0000000000374639
 146     0.0147799629908001
 147    -0.0000000000218239
 148     0.0223023603157348
 149    -0.0000000000199387
 150     0.0000000000138999
 151     0.0038813209575017
 152    -0.0000000000042356
 153     0.0042997049563647
 154    -0.0000000000125244
 155    -0.0008202490207705
 156     0.0000000010448314
 157     0.0000000014139346
 158     0.0000000002375074
 159    -0.0000000000162993
 160     0.0012579210768020
 161     0.0000000000998901
 162    -0.0000000000176141
 163     0.0053332396807072
 164     0.0000000001400304
 165     0.0000000000200494
 166    -0.0000000000093819
 167     0.0002758924941629
 168     0.0000000000012429
 169     0.0002498055162460
 170    -0.0000000001258941
 171    -0.0000000000842730
 172     0.0000000000147403
 173     0.0000000000127758
 174     0.0037508148367372
 175     0.0000000000001604
 176    -0.0000000000027804
 177     0.0102727487383867
 178     0.0000000000141276
 179     0.0000000000000906
 180     0.0000000000005110
 181     0.0001681574128262
 182    -0.0000000000024133
 183    -0.0014066692313162
 184     0.0000000001287281
 185     0.0000000000859389
 186    -0.0000000000146760
 187    -0.0000000000052396
 188     0.0037508147845646
 189    -0.0000000000120285
 190    -0.0000000000111049
 191     0.0102727486196028
 192     0.0000000000079605
 193     0.0000000000022502
 194     0.0000000000005384
 195    -0.0013533558688907
 196     0.0000000000011466
 197    -0.0004188353742860
 198    -0.0000000010447543
 199    -0.0000000014124203
 200    -0.0000000002374509
 201    -0.0000000000846403
 202     0.0012579209558739
 203     0.0000000000554971
 204    -0.0000000001203882
 205     0.0053332393568333
 206     0.0000000000730918
 207    -0.0000000000018900
 208     0.0000000000187218
 209     0.0001159118761558
 210    -0.0000000000117428
 211     0.0003536719961067
 Ene=    0.518915
 Spin= Alpha
 Sym= 0->2
 Occup=     0.211424
   1    -0.0000000000002778
   2    -0.0000000000006729
   3     0.0000000000009857
   4     0.0000000000013607
   5     0.0000000000006220
   6     0.0000000000022713
   7     0.0552839418138289
   8    -0.0000000000045904
   9    -0.0000000000021973
  10     0.0523147180695463
  11     0.0000000000024158
  12     0.0000000000168105
  13     0.0585931450005607
  14    -0.0000000000263753
  15    -0.0000000000011031
  16    -0.0000000000005776
  17    -0.0001807274544623
  18     0.0000000000006296
  19    -0.0002783658448014
  20     0.0000000000026368
  21     0.0000000000013001
  22     0.0001532670830806
  23    -0.0000000000015356
  24     0.0002360700843761
  25     0.0000000000003167
  26    -0.0000000000022230
  27     0.0000658257486149
  28     0.0000000000009513
  29    -0.0002273764121734
  30    -0.0000000000000656
  31    -0.0000804367850270
  32    -0.0000000000673604
  33    -0.0000000001504485
  34     0.0000000002531702
  35     0.0000000002429799
  36    -0.0000000000044393
  37    -0.0000000003043883
  38    -0.0567556724408219
  39     0.0000000001429557
  40    -0.0000000002106950
  41    -0.0645417125639071
  42     0.0000000001412853
  43    -0.0000000000849020
  44    -0.0475588456290682
  45     0.0000000000683441
  46    -0.0000000000058460
  47    -0.0000000000222591
  48    -0.0022441279508893
  49     0.0000000000100697
  50    -0.0014044300261882
  51    -0.0000000000143387
  52    -0.0000000000090876
  53    -0.0048455561623797
  54    -0.0000000000013476
  55    -0.0047550680083842
  56     0.0000000000010348
  57    -0.0000000000024718
  58     0.0011490203077940
  59     0.0000000000000257
  60     0.0003040250484450
  61    -0.0000000000036070
  62    -0.0005751227873494
  63     0.0000000000061991
  64     0.0000000000049669
  65     0.0000000000615997
  66     0.0000000003258109
  67     0.0000000000163818
  68     0.0000000001754741
  69    -0.0146243703182850
  70    -0.0000000002435883
  71     0.0000000002491223
  72    -0.0097731176082028
  73    -0.0000000003587401
  74    -0.0000000000099427
  75     0.0105656250187519
  76    -0.0000000000665593
  77    -0.0000000000011474
  78    -0.0000000000274669
  79     0.0010036285534028
  80    -0.0000000000005656
  81     0.0025981057504530
  82     0.0000000000585418
  83    -0.0000000000861822
  84     0.0019973956337255
  85     0.0000000000019749
  86     0.0054916372962484
  87     0.0000000000010540
  88     0.0000000000069070
  89    -0.0002079482351144
  90    -0.0000000000010051
  91    -0.0004151819808738
  92    -0.0000000000011288
  93    -0.0009639077764302
  94    -0.0000000000052407
  95    -0.0000000000028402
  96    -0.0000000000648242
  97    -0.0000000003287385
  98    -0.0000000000170547
  99     0.0000000001522225
 100    -0.0146243704981445
 101    -0.0000000002620058
 102     0.0000000002267877
 103    -0.0097731177275968
 104    -0.0000000003758419
 105     0.0000000000650981
 106     0.0105656261684403
 107    -0.0000000000183333
 108    -0.0000000000176810
 109     0.0000000000180107
 110     0.0019648217330679
 111     0.0000000000112789
 112     0.0019740565637566
 113    -0.0000000000422242
 114     0.0000000000949771
 115     0.0042035137600589
 116    -0.0000000000115839
 117     0.0040593276815622
 118     0.0000000000001834
 119     0.0000000000068958
 120    -0.0005257763843209
 121    -0.0000000000010029
 122    -0.0005942854069180
 123    -0.0000000000018771
 124    -0.0007177191447898
 125     0.0000000000674751
 126     0.0000000001506963
 127    -0.0000000002535237
 128    -0.0000000002436464
 129     0.0000000000047872
 130    -0.0000000000067854
 131    -0.0567556726588985
 132     0.0000000003359706
 133    -0.0000000000435421
 134    -0.0645417124981443
 135     0.0000000002495212
 136    -0.0000000000277717
 137    -0.0475588449578573
 138     0.0000000001056962
 139    -0.0000000000232134
 140     0.0000000000073487
 141    -0.0003696393997508
 142     0.0000000000066849
 143    -0.0026214309890271
 144    -0.0000000000086317
 145    -0.0000000000029019
 146    -0.0023716441571210
 147     0.0000000000145775
 148    -0.0063612411886813
 149     0.0000000000014539
 150    -0.0000000000008849
 151    -0.0006927320919631
 152     0.0000000000039295
 153    -0.0007338446272458
 154     0.0000000000013248
 155     0.0008514924900131
 156    -0.0000000002318590
 157    -0.0000000003480498
 158    -0.0000000000447239
 159     0.0000000000022855
 160    -0.0011101670823642
 161    -0.0000000000220958
 162     0.0000000000030498
 163    -0.0036830013562696
 164    -0.0000000000402081
 165    -0.0000000000040737
 166     0.0000000000011759
 167    -0.0003760864381832
 168     0.0000000000002828
 169    -0.0000218420573897
 170     0.0000000000769707
 171     0.0000000001257769
 172     0.0000000000014532
 173    -0.0000000000086294
 174    -0.0000599841785070
 175    -0.0000000000016497
 176    -0.0000000000211998
 177    -0.0005964513286178
 178    -0.0000000000084781
 179    -0.0000000000011802
 180     0.0000000000014233
 181     0.0000739010373641
 182     0.0000000000031743
 183     0.0000741464971911
 184    -0.0000000000773061
 185    -0.0000000001259101
 186    -0.0000000000014481
 187     0.0000000000050029
 188    -0.0000599841873327
 189     0.0000000000072655
 190     0.0000000000162746
 191    -0.0005964513338800
 192     0.0000000000159497
 193    -0.0000000000016946
 194    -0.0000000000028813
 195     0.0000376554955884
 196    -0.0000000000015261
 197     0.0000976787058650
 198     0.0000000002316932
 199     0.0000000003476288
 200     0.0000000000446916
 201     0.0000000000192439
 202    -0.0011101670866147
 203    -0.0000000000110673
 204     0.0000000000354164
 205    -0.0036830013546988
 206    -0.0000000000191431
 207    -0.0000000000004717
 208    -0.0000000000035128
 209     0.0001330953903921
 210     0.0000000000023421
 211    -0.0003524254564994
 Ene=    0.036422
 Spin= Alpha
 Sym= 1->0
 Occup=     0.419682
   1    -0.0000000000551592
   2    -0.0000000001347219
   3     0.0000000002035423
   4     0.0000000002729729
   5     0.0000000001738780
   6    -0.0000000002787548
   7     0.0000000019554477
   8    -0.0000000001813175
   9    -0.0000000002520541
  10     0.0000000018190418
  11    -0.0000000001639411
  12    -0.0000000001025319
  13     0.0000000024579442
  14    -0.0000000000666323
  15     0.0000000000005072
  16    -0.0000000000059596
  17    -0.0024667593819205
  18    -0.0000000000044085
  19     0.0016015294303068
  20     0.0000000000055557
  21    -0.0000000000262135
  22    -0.0083915793572661
  23    -0.0000000000136720
  24     0.0054481850281074
  25    -0.0000000000004124
  26    -0.0000000000006561
  27    -0.0011358499482894
  28    -0.0000000000015388
  29    -0.0006400774784896
  30    -0.0000000000021596
  31     0.0008798255749360
  32    -0.0000000000136965
  33    -0.0000000000318688
  34     0.0000000000559764
  35     0.0000000000361558
  36     0.0000000000559056
  37    -0.0000000001757125
  38    -0.0960041473242745
  39     0.0000000001137823
  40    -0.0000000001549649
  41    -0.1158127917163424
  42     0.0000000000845429
  43    -0.0000000000079551
  44    -0.0677275099380167
  45     0.0000000000245432
  46    -0.0000000000026882
  47     0.0000000000026572
  48     0.0023551446178992
  49     0.0000000000003546
  50     0.0042093434187866
  51     0.0000000000044708
  52    -0.0000000000074048
  53     0.0039866929085137
  54    -0.0000000000067777
  55     0.0003650798533694
  56     0.0000000000006184
  57    -0.0000000000033853
  58    -0.0000942190853135
  59     0.0000000000013814
  60     0.0008098236581699
  61    -0.0000000000033502
  62     0.0024396143087256
  63     0.0000000001049848
  64     0.0000000002242207
  65    -0.0000000003190386
  66    -0.0000000003075850
  67    -0.0000000000658489
  68    -0.0000000001379731
  69     0.1541059066909557
  70     0.0000000000385654
  71    -0.0000000001438647
  72     0.1643716691163023
  73    -0.0000000000021890
  74    -0.0000000000119542
  75     0.0366638387116378
  76    -0.0000000000221452
  77    -0.0000000000161428
  78     0.0000000000018467
  79    -0.0018538506176897
  80    -0.0000000000067204
  81     0.0026941631545964
  82    -0.0000000000366162
  83     0.0000000000023626
  84    -0.0113876235135493
  85     0.0000000000007794
  86     0.0017641698613072
  87    -0.0000000000029398
  88    -0.0000000000036793
  89    -0.0012602042816685
  90     0.0000000000056303
  91    -0.0006304104804050
  92    -0.0000000000005814
  93    -0.0025190865925527
  94     0.0000000001052266
  95     0.0000000002247494
  96    -0.0000000003198699
  97    -0.0000000003094537
  98    -0.0000000000656458
  99    -0.0000000000211004
 100    -0.1541059064163011
 101    -0.0000000001420255
 102    -0.0000000000604587
 103    -0.1643716684559001
 104    -0.0000000001310444
 105    -0.0000000000253406
 106    -0.0366638375032111
 107    -0.0000000000019097
 108    -0.0000000000019882
 109     0.0000000000091538
 110    -0.0032154062675729
 111    -0.0000000000149155
 112     0.0005970232742267
 113     0.0000000000082909
 114     0.0000000000256051
 115    -0.0062456368802977
 116    -0.0000000000252996
 117     0.0096841247313520
 118    -0.0000000000050024
 119     0.0000000000053503
 120     0.0016104633516521
 121     0.0000000000007981
 122     0.0008277893800006
 123     0.0000000000004919