[Molden Format]
[Atoms] Angs
 o       1                    8  9.927863995633e-02  7.049096885716e-35  6.435649433861e-02
 c       2                    6  1.732675639706e-01  7.565745137424e-37  1.399600372147e+00
 c       3                    6  1.456058717360e+00  2.268149838787e-15  1.802464923995e+00
 c       4                    6  2.239893825808e+00 -6.883934140968e-15  5.932291566116e-01
 c       5                    6  1.348471176795e+00  6.172122604818e-15 -4.131725672365e-01
 h       6                    1  1.455803712232e+00 -2.878150415070e-14 -1.484051552121e+00
 h       7                    1  3.313795733814e+00 -2.313559209051e-14  5.035782367120e-01
 h       8                    1  1.811937790722e+00  2.070986298764e-14  2.819757676993e+00
 h       9                    1 -7.602410600214e-01  2.186920343775e-14  1.935248370600e+00
[GTO]
1
 s           5
      2.266176778500e+03     -5.389350392174e-03
      3.408701019100e+02     -4.023472138896e-02
      7.736313516700e+01     -1.800818420553e-01
      2.147964494000e+01     -4.682885765765e-01
      6.658943312400e+00     -4.469261716019e-01
 s           1
      8.097597566800e-01      1.000000000000e+00
 s           1
      2.553077223400e-01      1.000000000000e+00
 p           3
      1.772150431700e+01      6.263024876316e-02
      3.863550544000e+00      3.333113848235e-01
      1.048092088300e+00      7.414863830812e-01
 p           1
      2.764154441100e-01      1.000000000000e+00
 d           1
      1.200000000000e+00      1.000000000000e+00

2
 s           5
      1.238401693800e+03      5.517365048110e-03
      1.862900499200e+02      4.108882855595e-02
      4.225117634600e+01      1.822538212649e-01
      1.167655793200e+01      4.682845943743e-01
      3.593050648200e+00      4.457581733600e-01
 s           1
      4.024514736300e-01      1.000000000000e+00
 s           1
      1.309018266800e-01      1.000000000000e+00
 p           3
      9.468097062100e+00      5.688833201104e-02
      2.010354514200e+00      3.129405933647e-01
      5.477100470700e-01      7.606501650914e-01
 p           1
      1.526861379500e-01      1.000000000000e+00
 d           1
      8.000000000000e-01      1.000000000000e+00

3
 s           5
      1.238401693800e+03      5.517365048110e-03
      1.862900499200e+02      4.108882855595e-02
      4.225117634600e+01      1.822538212649e-01
      1.167655793200e+01      4.682845943743e-01
      3.593050648200e+00      4.457581733600e-01
 s           1
      4.024514736300e-01      1.000000000000e+00
 s           1
      1.309018266800e-01      1.000000000000e+00
 p           3
      9.468097062100e+00      5.688833201104e-02
      2.010354514200e+00      3.129405933647e-01
      5.477100470700e-01      7.606501650914e-01
 p           1
      1.526861379500e-01      1.000000000000e+00
 d           1
      8.000000000000e-01      1.000000000000e+00

4
 s           5
      1.238401693800e+03      5.517365048110e-03
      1.862900499200e+02      4.108882855595e-02
      4.225117634600e+01      1.822538212649e-01
      1.167655793200e+01      4.682845943743e-01
      3.593050648200e+00      4.457581733600e-01
 s           1
      4.024514736300e-01      1.000000000000e+00
 s           1
      1.309018266800e-01      1.000000000000e+00
 p           3
      9.468097062100e+00      5.688833201104e-02
      2.010354514200e+00      3.129405933647e-01
      5.477100470700e-01      7.606501650914e-01
 p           1
      1.526861379500e-01      1.000000000000e+00
 d           1
      8.000000000000e-01      1.000000000000e+00

5
 s           5
      1.238401693800e+03      5.517365048110e-03
      1.862900499200e+02      4.108882855595e-02
      4.225117634600e+01      1.822538212649e-01
      1.167655793200e+01      4.682845943743e-01
      3.593050648200e+00      4.457581733600e-01
 s           1
      4.024514736300e-01      1.000000000000e+00
 s           1
      1.309018266800e-01      1.000000000000e+00
 p           3
      9.468097062100e+00      5.688833201104e-02
      2.010354514200e+00      3.129405933647e-01
      5.477100470700e-01      7.606501650914e-01
 p           1
      1.526861379500e-01      1.000000000000e+00
 d           1
      8.000000000000e-01      1.000000000000e+00

6
 s           3
      1.301070100000e+01      3.348548481299e-02
      1.962257200000e+00      2.347218708812e-01
      4.445379600000e-01      8.137702852596e-01
 s           1
      1.219496200000e-01      1.000000000000e+00
 p           1
      8.000000000000e-01      1.000000000000e+00

7
 s           3
      1.301070100000e+01      3.348548481299e-02
      1.962257200000e+00      2.347218708812e-01
      4.445379600000e-01      8.137702852596e-01
 s           1
      1.219496200000e-01      1.000000000000e+00
 p           1
      8.000000000000e-01      1.000000000000e+00

8
 s           3
      1.301070100000e+01      3.348548481299e-02
      1.962257200000e+00      2.347218708812e-01
      4.445379600000e-01      8.137702852596e-01
 s           1
      1.219496200000e-01      1.000000000000e+00
 p           1
      8.000000000000e-01      1.000000000000e+00

9
 s           3
      1.301070100000e+01      3.348548481299e-02
      1.962257200000e+00      2.347218708812e-01
      4.445379600000e-01      8.137702852596e-01
 s           1
      1.219496200000e-01      1.000000000000e+00
 p           1
      8.000000000000e-01      1.000000000000e+00


