[Molden Format]
[Atoms] Angs
 o       1                    8  9.754512200000e-02  0.000000000000e+00  6.321112950000e-02
 c       2                    6  1.776325803000e-01  0.000000000000e+00  1.402268608600e+00
 c       3                    6  1.454370269000e+00  0.000000000000e+00  1.803716467800e+00
 c       4                    6  2.239568439600e+00  0.000000000000e+00  5.943132140000e-01
 c       5                    6  1.353301165600e+00  0.000000000000e+00 -4.085575786000e-01
 h       6                    1  1.455992352100e+00  0.000000000000e+00 -1.471732615400e+00
 h       7                    1  3.305905428600e+00  0.000000000000e+00  5.060176349000e-01
 h       8                    1  1.807658598700e+00  0.000000000000e+00  2.813695694800e+00
 h       9                    1 -7.517369560000e-01  0.000000000000e+00  1.928727444500e+00
[GTO]
1
 s           5
      2.266176778500e+03     -5.389350392174e-03
      3.408701019100e+02     -4.023472138896e-02
      7.736313516700e+01     -1.800818420553e-01
      2.147964494000e+01     -4.682885765765e-01
      6.658943312400e+00     -4.469261716019e-01
 s           1
      8.097597566800e-01      1.000000000000e+00
 s           1
      2.553077223400e-01      1.000000000000e+00
 p           3
      1.772150431700e+01      6.263024876316e-02
      3.863550544000e+00      3.333113848235e-01
      1.048092088300e+00      7.414863830812e-01
 p           1
      2.764154441100e-01      1.000000000000e+00
 d           1
      1.200000000000e+00      1.000000000000e+00

2
 s           5
      1.238401693800e+03      5.517365048110e-03
      1.862900499200e+02      4.108882855595e-02
      4.225117634600e+01      1.822538212649e-01
      1.167655793200e+01      4.682845943743e-01
      3.593050648200e+00      4.457581733600e-01
 s           1
      4.024514736300e-01      1.000000000000e+00
 s           1
      1.309018266800e-01      1.000000000000e+00
 p           3
      9.468097062100e+00      5.688833201104e-02
      2.010354514200e+00      3.129405933647e-01
      5.477100470700e-01      7.606501650914e-01
 p           1
      1.526861379500e-01      1.000000000000e+00
 d           1
      8.000000000000e-01      1.000000000000e+00

3
 s           5
      1.238401693800e+03      5.517365048110e-03
      1.862900499200e+02      4.108882855595e-02
      4.225117634600e+01      1.822538212649e-01
      1.167655793200e+01      4.682845943743e-01
      3.593050648200e+00      4.457581733600e-01
 s           1
      4.024514736300e-01      1.000000000000e+00
 s           1
      1.309018266800e-01      1.000000000000e+00
 p           3
      9.468097062100e+00      5.688833201104e-02
      2.010354514200e+00      3.129405933647e-01
      5.477100470700e-01      7.606501650914e-01
 p           1
      1.526861379500e-01      1.000000000000e+00
 d           1
      8.000000000000e-01      1.000000000000e+00

4
 s           5
      1.238401693800e+03      5.517365048110e-03
      1.862900499200e+02      4.108882855595e-02
      4.225117634600e+01      1.822538212649e-01
      1.167655793200e+01      4.682845943743e-01
      3.593050648200e+00      4.457581733600e-01
 s           1
      4.024514736300e-01      1.000000000000e+00
 s           1
      1.309018266800e-01      1.000000000000e+00
 p           3
      9.468097062100e+00      5.688833201104e-02
      2.010354514200e+00      3.129405933647e-01
      5.477100470700e-01      7.606501650914e-01
 p           1
      1.526861379500e-01      1.000000000000e+00
 d           1
      8.000000000000e-01      1.000000000000e+00

5
 s           5
      1.238401693800e+03      5.517365048110e-03
      1.862900499200e+02      4.108882855595e-02
      4.225117634600e+01      1.822538212649e-01
      1.167655793200e+01      4.682845943743e-01
      3.593050648200e+00      4.457581733600e-01
 s           1
      4.024514736300e-01      1.000000000000e+00
 s           1
      1.309018266800e-01      1.000000000000e+00
 p           3
      9.468097062100e+00      5.688833201104e-02
      2.010354514200e+00      3.129405933647e-01
      5.477100470700e-01      7.606501650914e-01
 p           1
      1.526861379500e-01      1.000000000000e+00
 d           1
      8.000000000000e-01      1.000000000000e+00

6
 s           3
      1.301070100000e+01      3.348548481299e-02
      1.962257200000e+00      2.347218708812e-01
      4.445379600000e-01      8.137702852596e-01
 s           1
      1.219496200000e-01      1.000000000000e+00
 p           1
      8.000000000000e-01      1.000000000000e+00

7
 s           3
      1.301070100000e+01      3.348548481299e-02
      1.962257200000e+00      2.347218708812e-01
      4.445379600000e-01      8.137702852596e-01
 s           1
      1.219496200000e-01      1.000000000000e+00
 p           1
      8.000000000000e-01      1.000000000000e+00

8
 s           3
      1.301070100000e+01      3.348548481299e-02
      1.962257200000e+00      2.347218708812e-01
      4.445379600000e-01      8.137702852596e-01
 s           1
      1.219496200000e-01      1.000000000000e+00
 p           1
      8.000000000000e-01      1.000000000000e+00

9
 s           3
      1.301070100000e+01      3.348548481299e-02
      1.962257200000e+00      2.347218708812e-01
      4.445379600000e-01      8.137702852596e-01
 s           1
      1.219496200000e-01      1.000000000000e+00
 p           1
      8.000000000000e-01      1.000000000000e+00


[5D]
[7F]
[9G]
[MO]
 Ene=  -20.615448
 Spin=  Alpha
 Occup=    2.000000
   1     0.9901271484097549
   2    -0.0360333288532202
   3     0.0252876812491305
   4    -0.0018939606220867
   5     0.0000000000000008
   6    -0.0012296431677618
   7     0.0041045458621015
   8    -0.0000000000000007
   9     0.0026648530285167
  10    -0.0000132002969863
  11     0.0000221860150780
  12    -0.0000000000000001
  13    -0.0000030956364979
  14     0.0000000000000000
  15    -0.0000277433967360
  16    -0.0014013705009232
  17    -0.0076536718151669
  18    -0.0000155366573187
  19    -0.0000000000000000
  20     0.0002367293787699
  21    -0.0020294589236642
  22     0.0000000000000002
  23     0.0046248230453890
  24     0.0009025306953586
  25     0.0003838596272829
  26     0.0000000000000001
  27    -0.0003973893821201
  28     0.0000000000000000
  29     0.0000089400855637
  30     0.0000124972611180
  31     0.0025163421819449
  32    -0.0003725396687842
  33     0.0000000000000001
  34    -0.0000399114931406
  35    -0.0009396587732144
  36    -0.0000000000000000
  37    -0.0024061250973455
  38    -0.0002044087597292
  39     0.0001197553999076
  40    -0.0000000000000004
  41     0.0000033938662465
  42     0.0000000000000001
  43     0.0000089400863071
  44     0.0000124972549212
  45     0.0025163420884787
  46    -0.0001880609444534
  47    -0.0000000000000001
  48    -0.0003240552608004
  49    -0.0025802705634811
  50    -0.0000000000000001
  51     0.0001208309161719
  52    -0.0000232243191945
  53     0.0002129609620777
  54     0.0000000000000004
  55    -0.0001012130196884
  56    -0.0000000000000003
  57    -0.0000277433890926
  58    -0.0014013704919455
  59    -0.0076536717127054
  60     0.0002099183714505
  61    -0.0000000000000001
  62    -0.0001105281951434
  63     0.0033986725492499
  64     0.0000000000000000
  65    -0.0037358687519565
  66    -0.0007613730619574
  67    -0.0004720918610031
  68     0.0000000000000001
  69     0.0005632658760939
  70    -0.0000000000000002
  71     0.0003127540232929
  72    -0.0004137881458023
  73    -0.0004035168414962
  74    -0.0000000000000001
  75     0.0003113155387048
  76     0.0004150651529910
  77     0.0004670321466239
  78    -0.0000225001206660
  79    -0.0000000000000003
  80    -0.0000126933540231
  81     0.0004150651547329
  82     0.0004670321604160
  83    -0.0000207511195740
  84    -0.0000000000000001
  85    -0.0000153872589040
  86     0.0003127540039930
  87    -0.0004137881772533
  88     0.0001201620256798
  89    -0.0000000000000001
  90    -0.0004952820439616
 Ene=  -11.285738
 Spin=  Alpha
 Occup=    2.000000
   1     0.0000000004098510
   2     0.0000000031333079
   3    -0.0000000146824938
   4     0.0000258692380430
   5     0.0000000000000003
   6    -0.0000398448558048
   7     0.0025424471554256
   8    -0.0000000000000001
   9    -0.0039160242704580
  10    -0.0006427884066017
  11    -0.0003306650147015
  12     0.0000000000000004
  13     0.0003711126019036
  14     0.0000000000000004
  15     0.7004724202532581
  16     0.0259094928374059
  17    -0.0162563615418676
  18    -0.0002330784192336
  19    -0.0000000000000008
  20    -0.0008798072596793
  21    -0.0046297239040034
  22    -0.0000000000000003
  23    -0.0019332589347543
  24     0.0002427328911551
  25    -0.0001633544027356
  26    -0.0000000000000003
  27     0.0013252707479971
  28     0.0000000000000001
  29     0.0097230447927598
  30    -0.0015556666359008
  31     0.0077758238595882
  32     0.0008116346506605
  33    -0.0000000000000004
  34     0.0003275919322905
  35    -0.0023527915208523
  36     0.0000000000000005
  37     0.0016257171967931
  38    -0.0004088378359509
  39    -0.0002083011465189
  40     0.0000000000000001
  41    -0.0002733492122704
  42     0.0000000000000004
  43    -0.0097230208029163
  44     0.0015556636184223
  45    -0.0077758230268424
  46    -0.0006295303121771
  47    -0.0000000000000006
  48    -0.0006080740447479
  49    -0.0005275463876409
  50    -0.0000000000000003
  51     0.0028107404022359
  52    -0.0000394506426363
  53    -0.0000223097112135
  54     0.0000000000000000
  55     0.0005321676107532
  56    -0.0000000000000002
  57    -0.7004706551587421
  58    -0.0259094272228711
  59     0.0162563452512804
  60     0.0008985082320236
  61    -0.0000000000000006
  62    -0.0001451275572660
  63     0.0036499827965175
  64     0.0000000000000007
  65     0.0034423112463221
  66    -0.0010017527727982
  67    -0.0002271054771012
  68     0.0000000000000001
  69    -0.0008870460300067
  70    -0.0000000000000000
  71     0.0025143618106201
  72    -0.0027965271484071
  73    -0.0004931073513061
  74    -0.0000000000000001
  75     0.0009472655254829
  76     0.0001990081494888
  77     0.0012266116859805
  78     0.0003756443661096
  79    -0.0000000000000002
  80     0.0001234018140760
  81    -0.0001990088302782
  82    -0.0012266149084941
  83    -0.0002655895103130
  84    -0.0000000000000001
  85    -0.0002929157273178
  86    -0.0025143655892014
  87     0.0027965392586127
  88    -0.0006646153694419
  89     0.0000000000000002
  90     0.0008359184090522
 Ene=  -11.285685
 Spin=  Alpha
 Occup=    2.000000
   1     0.0003206170348979
   2     0.0024905004580739
   3    -0.0115787423727359
   4     0.0001103843059546
   5    -0.0000000000000000
   6     0.0000716664454072
   7    -0.0051642331752197
   8    -0.0000000000000002
   9    -0.0033528420054774
  10    -0.0005665379043345
  11     0.0001630229140450
  12     0.0000000000000003
  13    -0.0008360199900840
  14    -0.0000000000000001
  15     0.7004304578355308
  16     0.0260151264013154
  17    -0.0064850088877442
  18    -0.0002757542906978
  19     0.0000000000000003
  20    -0.0015670964881023
  21     0.0039125216127791
  22    -0.0000000000000005
  23    -0.0044839403710439
  24     0.0006396190032353
  25    -0.0004880678445953
  26    -0.0000000000000002
  27     0.0013678614365171
  28     0.0000000000000003
  29     0.0096107180465572
  30    -0.0012010966928325
  31     0.0003372888249289
  32     0.0012113783167320
  33    -0.0000000000000001
  34    -0.0000729396096297
  35     0.0006889284122025
  36     0.0000000000000001
  37     0.0031402004343700
  38    -0.0001297026495507
  39    -0.0003259203806334
  40     0.0000000000000000
  41    -0.0003517140259623
  42     0.0000000000000001
  43     0.0096107427710320
  44    -0.0012011006157253
  45     0.0003373086403288
  46     0.0004263409174000
  47    -0.0000000000000001
  48     0.0011362199968580
  49     0.0031487805477175
  50     0.0000000000000003
  51    -0.0006485975066412
  52    -0.0000116754004903
  53    -0.0002652043684635
  54     0.0000000000000002
  55    -0.0004198583765836
  56    -0.0000000000000002
  57     0.7004322230373328
  58     0.0260151916334518
  59    -0.0064850500369050
  60    -0.0015436869067023
  61     0.0000000000000001
  62     0.0003858364817319
  63    -0.0025036863726787
  64     0.0000000000000001
  65     0.0053986156637496
  66     0.0011417474507905
  67    -0.0002297617948062
  68     0.0000000000000002
  69     0.0010779611276677
  70    -0.0000000000000001
  71    -0.0015107437312410
  72     0.0048002092932105
  73     0.0004296772164679
  74    -0.0000000000000001
  75    -0.0011048581670232
  76    -0.0002675619451740
  77    -0.0012701649810571
  78    -0.0003227208157977
  79    -0.0000000000000003
  80    -0.0001685229560803
  81    -0.0002675614630150
  82    -0.0012701619293607
  83    -0.0002852670592151
  84     0.0000000000000000
  85    -0.0002262094054516
  86    -0.0015107373593684
  87     0.0048002022911093
  88    -0.0008343775761651
  89    -0.0000000000000005
  90     0.0008421055717202
 Ene=  -11.228611
 Spin=  Alpha
 Occup=    2.000000
   1    -0.0000874347480505
   2    -0.0007178024402820
   3     0.0022593503234058
   4    -0.0001116935581379
   5     0.0000000000000003
   6    -0.0000725163172503
   7    -0.0002552368795412
   8     0.0000000000000002
   9    -0.0001657110693667
  10     0.0000274675911782
  11    -0.0001791571282004
  12     0.0000000000000001
  13    -0.0001120553968095
  14     0.0000000000000002
  15     0.0095817902430598
  16     0.0020002108942644
  17    -0.0059239501525759
  18     0.0008004123202404
  19    -0.0000000000000003
  20     0.0003996471573442
  21    -0.0007823301336764
  22     0.0000000000000004
  23     0.0005527430673042
  24     0.0000075472539275
  25    -0.0000541594906699
  26     0.0000000000000000
  27     0.0004249126279022
  28    -0.0000000000000003
  29    -0.7005971125320615
  30    -0.0241340346980863
  31     0.0122757181815519
  32     0.0005771474635548
  33     0.0000000000000007
  34    -0.0006847980574158
  35    -0.0010717567108541
  36    -0.0000000000000011
  37    -0.0012075423654261
  38    -0.0003679946891287
  39    -0.0008529429487893
  40     0.0000000000000001
  41    -0.0005512291066316
  42    -0.0000000000000000
  43    -0.7005979632299508
  44    -0.0241340675910353
  45     0.0122757443729063
  46    -0.0003906615251764
  47     0.0000000000000005
  48     0.0008058719697211
  49    -0.0015391799991454
  50     0.0000000000000006
  51    -0.0004875933519733
  52     0.0002434281821464
  53    -0.0005384117937743
  54    -0.0000000000000005
  55    -0.0009042366351532
  56    -0.0000000000000001
  57     0.0095818021403961
  58     0.0020002136022099
  59    -0.0059239574150206
  60     0.0006907843922288
  61     0.0000000000000003
  62     0.0005685041314695
  63     0.0001865355706141
  64    -0.0000000000000004
  65    -0.0009395569326600
  66     0.0003400170992236
  67     0.0001168707042403
  68     0.0000000000000002
  69     0.0002329617202660
  70    -0.0000000000000000
  71    -0.0001947718548613
  72     0.0007378297958261
  73    -0.0002501431819627
  74     0.0000000000000001
  75    -0.0002615690736604
  76     0.0022080753135489
  77    -0.0029359955454941
  78    -0.0008593312394660
  79     0.0000000000000001
  80    -0.0000302668734847
  81     0.0022080729211935
  82    -0.0029359897178182
  83    -0.0003773487847373
  84     0.0000000000000003
  85    -0.0007726392183831
  86    -0.0001947720103849
  87     0.0007378281494785
  88    -0.0003407252843926
  89     0.0000000000000004
  90    -0.0001220492708326
 Ene=  -11.227788
 Spin=  Alpha
 Occup=    2.000000
   1     0.0000000000527361
   2     0.0000000004324137
   3    -0.0000000013529918
   4    -0.0000661062229559
   5    -0.0000000000000000
   6     0.0001018204078506
   7    -0.0000121299561108
   8    -0.0000000000000001
   9     0.0000186835407307
  10     0.0001374785686704
  11     0.0000707223513059
  12    -0.0000000000000001
  13    -0.0000793732296431
  14     0.0000000000000003
  15    -0.0096034946292338
  16    -0.0022279578742029
  17     0.0060723131353748
  18    -0.0009882175647457
  19    -0.0000000000000006
  20    -0.0003815604247086
  21     0.0001056254552565
  22    -0.0000000000000003
  23     0.0019212788571737
  24     0.0000484289724355
  25     0.0001693995348941
  26    -0.0000000000000001
  27    -0.0005646237121269
  28    -0.0000000000000008
  29     0.7003029712333888
  30     0.0270815237225433
  31    -0.0217151034379856
  32     0.0003730493100313
  33    -0.0000000000000014
  34    -0.0006067788060751
  35     0.0002820311329440
  36     0.0000000000000015
  37     0.0002940930638253
  38     0.0015268694938968
  39     0.0001706780888346
  40     0.0000000000000003
  41     0.0010673177306751
  42    -0.0000000000000003
  43    -0.7003021201734131
  44    -0.0270814944049282
  45     0.0217150885205969
  46     0.0004024526773053
  47     0.0000000000000005
  48    -0.0005876901139399
  49    -0.0003834095983025
  50    -0.0000000000000003
  51    -0.0001379411739987
  52    -0.0002772127278848
  53     0.0004721757569652
  54    -0.0000000000000005
  55    -0.0017888064751582
  56     0.0000000000000004
  57     0.0096034832135946
  58     0.0022279554442638
  59    -0.0060723059740593
  60     0.0007506879657102
  61     0.0000000000000005
  62     0.0007474139396822
  63    -0.0017979801173791
  64     0.0000000000000002
  65     0.0006853750755526
  66     0.0005292525280381
  67     0.0001277735827698
  68     0.0000000000000006
  69     0.0002310986185271
  70    -0.0000000000000000
  71     0.0001078978421488
  72     0.0013190102923743
  73    -0.0000561580762525
  74     0.0000000000000000
  75    -0.0003432085144625
  76     0.0019792617683182
  77    -0.0047928435181576
  78    -0.0013490311624177
  79     0.0000000000000002
  80     0.0002507188011234
  81    -0.0019792644574168
  82     0.0047928470874780
  83     0.0003199643745494
  84    -0.0000000000000004
  85     0.0013343052856453
  86    -0.0001078975984639
  87    -0.0013190111594920
  88     0.0003363582551022
  89     0.0000000000000005
  90    -0.0000883696516038
 Ene=   -1.459570
 Spin=  Alpha
 Occup=    2.000000
   1     0.2550912520790037
   2     0.5054904071775160
   3     0.3228149724881481
   4     0.0889001945903120
   5     0.0000000000000051
   6     0.0577179467840076
   7     0.0387355277081024
   8    -0.0000000000000020
   9     0.0251488206779203
  10     0.0054839478463815
  11    -0.0005696655000915
  12     0.0000000000000004
  13     0.0089908993826275
  14     0.0000000000000005
  15    -0.0929396582738509
  16     0.1702884844813010
  17    -0.0031702749912224
  18     0.0175178732437359
  19     0.0000000000000007
  20    -0.1087954549904770
  21     0.0012827999510693
  22     0.0000000000000008
  23    -0.0012089476263654
  24     0.0221139296029557
  25    -0.0012145949932276
  26    -0.0000000000000008
  27     0.0026339350470052
  28    -0.0000000000000001
  29    -0.0326530402095628
  30     0.0588386480924372
  31     0.0150320826726926
  32    -0.0214983948804672
  33     0.0000000000000005
  34    -0.0291737563134466
  35    -0.0040822655845825
  36    -0.0000000000000001
  37    -0.0031072031773897
  38     0.0003605088763062
  39     0.0024052055709279
  40     0.0000000000000000
  41     0.0040686928716235
  42    -0.0000000000000001
  43    -0.0326530401292336
  44     0.0588386479608347
  45     0.0150320811151127
  46    -0.0353975222845739
  47    -0.0000000000000002
  48    -0.0077655936608020
  49    -0.0044995441243248
  50    -0.0000000000000012
  51    -0.0024644878930704
  52     0.0013007764534020
  53     0.0028889014012694
  54    -0.0000000000000001
  55     0.0035258291165203
  56    -0.0000000000000004
  57    -0.0929396563823709
  58     0.1702884809550766
  59    -0.0031702738070168
  60    -0.0922505857124478
  61    -0.0000000000000006
  62     0.0602756648052800
  63    -0.0005822842990865
  64     0.0000000000000010
  65     0.0016637540462797
  66    -0.0028783689256078
  67    -0.0140712251885230
  68    -0.0000000000000004
  69     0.0170632450741740
  70    -0.0000000000000009
  71     0.0201694412726907
  72     0.0052219200534701
  73    -0.0013940320684979
  74    -0.0000000000000003
  75     0.0046862729321175
  76     0.0041352658239382
  77    -0.0009421532690154
  78    -0.0014008014976223
  79     0.0000000000000001
  80    -0.0000395510540505
  81     0.0041352658211426
  82    -0.0009421533220515
  83    -0.0006061792474221
  84     0.0000000000000000
  85    -0.0012634697495179
  86     0.0201694414156816
  87     0.0052219198959047
  88     0.0037133889289667
  89    -0.0000000000000001
  90    -0.0031804437805692
 Ene=   -1.077291
 Spin=  Alpha
 Occup=    2.000000
   1     0.1072373870760261
   2     0.2257581572029586
   3     0.1607725263010945
   4    -0.0500763849443257
   5     0.0000000000000014
   6    -0.0325118041548660
   7    -0.0270788773873978
   8    -0.0000000000000008
   9    -0.0175808054101172
  10     0.0013894536367459
  11    -0.0060217368798492
  12    -0.0000000000000000
  13    -0.0029588115923235
  14     0.0000000000000000
  15     0.0705711294253848
  16    -0.1379062428761972
  17    -0.0218011544303936
  18    -0.1256669207662211
  19    -0.0000000000000003
  20    -0.0712638735495470
  21    -0.0139955211887753
  22     0.0000000000000001
  23    -0.0206295254771163
  24     0.0137608715364466
  25     0.0006245258739693
  26     0.0000000000000002
  27    -0.0129480300506769
  28    -0.0000000000000005
  29     0.1733393692935375
  30    -0.3310067611878039
  31    -0.0915892738515244
  32     0.0193941740578941
  33    -0.0000000000000039
  34     0.0905824097485076
  35     0.0047142406171430
  36    -0.0000000000000003
  37     0.0327834378187374
  38    -0.0073873963016486
  39     0.0039938311467367
  40    -0.0000000000000004
  41    -0.0102779998272814
  42     0.0000000000000002
  43     0.1733393706807529
  44    -0.3310067639647401
  45    -0.0915892737444963
  46     0.0906350745987185
  47    -0.0000000000000003
  48    -0.0191465458651923
  49     0.0318645402578367
  50     0.0000000000000007
  51    -0.0090348726741495
  52    -0.0081397670154135
  53     0.0036067936602189
  54     0.0000000000000007
  55    -0.0098436184951243
  56     0.0000000000000005
  57     0.0705711326932846
  58    -0.1379062492702925
  59    -0.0218011565884973
  60    -0.1162358386411281
  61     0.0000000000000010
  62    -0.0857901166023338
  63    -0.0245395096613541
  64     0.0000000000000006
  65    -0.0043891243516993
  66    -0.0132205582160613
  67    -0.0132553606215040
  68    -0.0000000000000001
  69     0.0026297053598190
  70    -0.0000000000000004
  71    -0.0153572447676904
  72     0.0004346979279568
  73    -0.0009778423610785
  74    -0.0000000000000001
  75    -0.0023638359247096
  76    -0.0760241231062882
  77    -0.0144408453703002
  78     0.0114122907411469
  79     0.0000000000000001
  80    -0.0010953990786105
  81    -0.0760241223492130
  82    -0.0144408452945426
  83     0.0036435971927630
  84    -0.0000000000000005
  85     0.0108703484762438
  86    -0.0153572433430554
  87     0.0004346982708562
  88    -0.0025571800147127
  89    -0.0000000000000002
  90     0.0000687426070137
 Ene=   -1.005164
 Spin=  Alpha
 Occup=    2.000000
   1     0.0000000017069376
   2     0.0000000035018328
   3     0.0000000039205469
   4     0.1335283603216081
   5    -0.0000000000000016
   6    -0.2056673607418195
   7     0.0694974364471082
   8    -0.0000000000000004
   9    -0.1070435835253304
  10    -0.0160277345495354
  11    -0.0082450462928211
  12    -0.0000000000000012
  13     0.0092536168269335
  14     0.0000000000000006
  15     0.1733694279468436
  16    -0.3410211596928988
  17    -0.1109927334078078
  18    -0.0218384453690912
  19    -0.0000000000000007
  20     0.0194324407597857
  21    -0.0420084979493536
  22     0.0000000000000007
  23    -0.0022940106978409
  24    -0.0093996790978345
  25    -0.0089954962339644
  26     0.0000000000000007
  27    -0.0089855266732175
  28     0.0000000000000001
  29     0.0885321261788607
  30    -0.1678489486714909
  31    -0.0333129197447392
  32     0.1039069114629342
  33    -0.0000000000000033
  34    -0.0118676810787993
  35     0.0103373676511910
  36    -0.0000000000000009
  37     0.0029851463426110
  38     0.0076037712469776
  39    -0.0092471595085806
  40    -0.0000000000000001
  41    -0.0095391734795817
  42    -0.0000000000000000
  43    -0.0885321232593956
  44     0.1678489430660373
  45     0.0333129176981783
  46    -0.0314439953371021
  47     0.0000000000000012
  48    -0.0997434882762221
  49    -0.0069335430420489
  50     0.0000000000000004
  51    -0.0082278944675390
  52     0.0028523494109753
  53     0.0146260357863508
  54    -0.0000000000000004
  55     0.0035023291873916
  56    -0.0000000000000004
  57    -0.1733694274591190
  58     0.3410211584650859
  59     0.1109927337968669
  60    -0.0088635250126207
  61    -0.0000000000000007
  62     0.0278563344032942
  63     0.0191906793108974
  64    -0.0000000000000009
  65     0.0374392065430940
  66    -0.0016636156517111
  67     0.0033042751509788
  68    -0.0000000000000006
  69     0.0153729228520747
  70    -0.0000000000000003
  71     0.1170596594190471
  72     0.0263720990730408
  73    -0.0016447432470484
  74     0.0000000000000003
  75     0.0150542358567072
  76     0.0535949870470488
  77     0.0087149430530478
  78    -0.0078842148526233
  79     0.0000000000000001
  80    -0.0016000412388268
  81    -0.0535949884762755
  82    -0.0087149432529516
  83     0.0046700145232383
  84    -0.0000000000000002
  85     0.0065507207931153
  86    -0.1170596591604810
  87    -0.0263720990709454
  88    -0.0130819991997011
  89     0.0000000000000004
  90     0.0076286626525429
 Ene=   -0.813198
 Spin=  Alpha
 Occup=    2.000000
   1     0.0000000004034183
   2     0.0000000007180989
   3     0.0000000022631930
   4     0.1711437862849510
   5    -0.0000000000000012
   6    -0.2636046047716734
   7     0.0955757938728002
   8    -0.0000000000000006
   9    -0.1472108319047830
  10    -0.0121838464648429
  11    -0.0062676591343369
  12    -0.0000000000000022
  13     0.0070343470363912
  14     0.0000000000000002
  15     0.0217634892299911
  16    -0.0451179506703555
  17    -0.0469309969057422
  18     0.1760633461872018
  19     0.0000000000000003
  20     0.1700448658830357
  21     0.0049812551469703
  22     0.0000000000000017
  23     0.0307997010661766
  24    -0.0215283008737795
  25     0.0017143822262557
  26    -0.0000000000000002
  27     0.0050979847739300
  28     0.0000000000000009
  29    -0.1233748101785458
  30     0.2447293619338290
  31     0.1748497264654224
  32    -0.0764083463240801
  33     0.0000000000000045
  34     0.0857039482613025
  35    -0.0435422972913737
  36     0.0000000000000004
  37    -0.0108597615790298
  38    -0.0009806990358182
  39     0.0064968574472925
  40     0.0000000000000006
  41     0.0058105118485993
  42     0.0000000000000002
  43     0.1233748112472780
  44    -0.2447293641803912
  45    -0.1748497270085117
  46    -0.0471923354511344
  47    -0.0000000000000006
  48     0.1046722767593566
  49     0.0276392555019838
  50     0.0000000000000006
  51     0.0353544559215071
  52    -0.0002624599901135
  53    -0.0071363676789408
  54     0.0000000000000004
  55    -0.0050927737194975
  56     0.0000000000000000
  57    -0.0217634902218327
  58     0.0451179523919975
  59     0.0469309978779675
  60    -0.2269761825200033
  61     0.0000000000000009
  62    -0.0916262541920793
  63    -0.0301611528689145
  64    -0.0000000000000007
  65     0.0079836923369958
  66    -0.0079963807349103
  67    -0.0169025778906407
  68    -0.0000000000000005
  69     0.0119480981030621
  70    -0.0000000000000009
  71     0.0643112300797613
  72     0.0229904342771213
  73    -0.0038256435340366
  74     0.0000000000000005
  75     0.0049376196010769
  76    -0.1518719642190181
  77    -0.0351169185298391
  78     0.0150745338363687
  79     0.0000000000000003
  80    -0.0001304974708208
  81     0.1518719622480944
  82     0.0351169182353194
  83    -0.0060153255123829
  84     0.0000000000000006
  85    -0.0138229683343661
  86    -0.0643112266491840
  87    -0.0229904337714026
  88    -0.0029534458927096
  89     0.0000000000000004
  90     0.0055038886153192
 Ene=   -0.771559
 Spin=  Alpha
 Occup=    2.000000
   1    -0.0704796200206747
   2    -0.1517711141139227
   3    -0.1446397762476720
   4     0.0567157687469821
   5    -0.0000000000000046
   6     0.0368223926629810
   7     0.0388675525064651
   8    -0.0000000000000017
   9     0.0252345387409496
  10     0.0022480086437061
  11    -0.0017199472098990
  12    -0.0000000000000000
  13     0.0023611781804757
  14    -0.0000000000000002
  15    -0.1274304924896449
  16     0.2646928098292290
  17     0.1036460748141879
  18    -0.0578707870999495
  19    -0.0000000000000031
  20     0.1197321613273654
  21    -0.0129308739575085
  22    -0.0000000000000014
  23     0.0321998496782498
  24    -0.0053503769926538
  25    -0.0044805362877194
  26    -0.0000000000000002
  27     0.0064716637790790
  28    -0.0000000000000004
  29     0.0667708639760495
  30    -0.1379891885619516
  31    -0.0598359872911127
  32    -0.2038148163670191
  33    -0.0000000000000032
  34     0.0277077689260215
  35    -0.0611336200628946
  36    -0.0000000000000009
  37     0.0155536454231987
  38    -0.0114107869640162
  39     0.0092528646615831
  40     0.0000000000000001
  41     0.0021940875654194
  42     0.0000000000000006
  43     0.0667708627956363
  44    -0.1379891863428830
  45    -0.0598359867275193
  46    -0.0576320077615704
  47    -0.0000000000000004