[Molden Format]
[Atoms] Angs
 h       1                    1 -2.270000000000e-01 -8.250000000000e-01 -2.666000000000e+00
 o       2                    8  1.860000000000e-01 -1.470000000000e-01 -3.258000000000e+00
 h       3                    1  3.000000000000e-02  7.140000000000e-01 -2.796000000000e+00
[GTO]
1
 s           3
      3.406134100000e+01      2.543930720888e-02
      5.123574600000e+00      1.900859489038e-01
      1.164662600000e+00      8.524411301104e-01
 s           1
      3.272304100000e-01      1.000000000000e+00
 s           1
      1.030724100000e-01      1.000000000000e+00
 p           1
      1.407000000000e+00      1.000000000000e+00
 p           1
      3.880000000000e-01      1.000000000000e+00
 d           1
      1.057000000000e+00      1.000000000000e+00

2
 s           6
      2.703238263100e+04      5.722733521115e-04
      4.052387139200e+03      4.435323349299e-03
      9.223272271000e+02      2.302010770604e-02
      2.612407098900e+02      9.282249066793e-02
      8.535464135100e+01      2.937850000967e-01
      3.103503524500e+01      6.740160450164e-01
 s           2
      1.226086072800e+01      6.383993702551e-01
      4.998707600500e+00      3.953458712572e-01
 s           1
      1.170310815800e+00      1.000000000000e+00
 s           1
      4.647474099400e-01      1.000000000000e+00
 s           1
      1.850453635700e-01      1.000000000000e+00
 p           4
      6.327495480100e+01      1.201833222262e-02
      1.462704937900e+01      8.300542179006e-02
      4.450122345600e+00      3.199174392596e-01
      1.527579964700e+00      7.071554291610e-01
 p           1
      5.293511794300e-01      1.000000000000e+00
 p           1
      1.747842127000e-01      1.000000000000e+00
 d           1
      2.314000000000e+00      1.000000000000e+00
 d           1
      6.450000000000e-01      1.000000000000e+00
 f           1
      1.428000000000e+00      1.000000000000e+00

3
 s           3
      3.406134100000e+01      2.543930720888e-02
      5.123574600000e+00      1.900859489038e-01
      1.164662600000e+00      8.524411301104e-01
 s           1
      3.272304100000e-01      1.000000000000e+00
 s           1
      1.030724100000e-01      1.000000000000e+00
 p           1
      1.407000000000e+00      1.000000000000e+00
 p           1
      3.880000000000e-01      1.000000000000e+00
 d           1
      1.057000000000e+00      1.000000000000e+00


[5D]
[7F]
[9G]
[MO]
 Ene=    0.364976
 Spin= Alpha
 Sym= 0->0
 Occup=     0.954669
   1     0.0000000000020532
   2     0.0000000000030334
   3    -0.0000000000001273
   4    -0.0073158145563075
   5     0.0008752329508240
   6    -0.0041013909987988
   7    -0.0180303122665838
   8     0.0021570699048842
   9    -0.0101081513022836
  10     0.0023814795706533
  11     0.0014823145878681
  12    -0.0019602356222300
  13    -0.0020863447884104
  14    -0.0027661315246706
  15     0.0000000000000402
  16     0.0000000000001034
  17    -0.0000000000001535
  18    -0.0000000000003436
  19     0.0000000000005110
  20    -0.4276354542654274
  21     0.0511604876744770
  22    -0.2397409323745819
  23    -0.3843693418316348
  24     0.0459843139269177
  25    -0.2154850900867918
  26    -0.1408758611407460
  27     0.0168537890993227
  28    -0.0789778068245647
  29    -0.0027148601786212
  30    -0.0019504642493367
  31     0.0000560159132675
  32     0.0014485742961663
  33    -0.0006771307686044
  34    -0.0121795041377708
  35    -0.0087478818294902
  36     0.0002710404006456
  37     0.0065070714138997
  38    -0.0030030619258032
  39     0.0001057993391586
  40     0.0005187737051523
  41     0.0001221436189931
  42     0.0014229632854248
  43    -0.0001978345529768
  44     0.0019063880745123
  45    -0.0008627246996699
  46    -0.0000000000019698
  47    -0.0000000000028184
  48    -0.0000000000006186
  49    -0.0073374654407984
  50     0.0008778231706736
  51    -0.0041135289144243
  52    -0.0181015372159583
  53     0.0021655909550474
  54    -0.0101480814233613
  55     0.0018370445150459
  56     0.0015478208561161
  57     0.0018680024097927
  58    -0.0001667589496575
  59     0.0038091720153838
 Ene=    0.449646
 Spin= Alpha
 Sym= 0->1
 Occup=     0.958105
   1    -0.0621933343366980
   2    -0.0745585701551954
   3     0.0427532634566718
   4    -0.0030254117777209
   5    -0.0118465432357572
   6     0.0028685064492275
   7    -0.0034255862390524
   8    -0.0224016466715567
   9     0.0013298645157638
  10     0.0019912124730194
  11     0.0006076841798154
  12     0.0029687971843498
  13     0.0032570686264242
  14    -0.0025205233872461
  15    -0.0241024639255833
  16    -0.0591125239618365
  17     0.0912765095927809
  18     0.1566377365747311
  19     0.0644620295798712
  20     0.2221214772350332
  21    -0.0709032847322327
  22    -0.4113376237740889
  23     0.1901302133929732
  24    -0.0606379692493666
  25    -0.3520829230804343
  26     0.0583175124484017
  27    -0.0184470266828716
  28    -0.1079598487945519
  29    -0.0015908738944855
  30     0.0029019978458969
  31    -0.0006621568208050
  32     0.0009297518911377
  33    -0.0000465486047192
  34    -0.0090874001704865
  35     0.0094335085823474
  36    -0.0032641026715963
  37    -0.0032648455939641
  38     0.0020071256201877
  39     0.0000306960090884
  40     0.0015594324557014
  41    -0.0002375448040530
  42     0.0001957240458836
  43     0.0001011809552702
  44    -0.0004340376720798
  45     0.0002483670501835
  46    -0.0624045957446067
  47    -0.0753868812065079
  48     0.0420423929963170
  49     0.0010533213362805
  50     0.0124893912419184
  51     0.0007863730100746
  52     0.0040534524493817
  53     0.0222709001244715
  54    -0.0024777156834541
  55     0.0026795488537216
  56    -0.0003900091448667
  57    -0.0016181629654665
  58     0.0044922234644584
  59    -0.0001435838150740
 Ene=    0.615723
 Spin= Alpha
 Sym= 0->2
 Occup=     0.972364
   1    -0.1495037989271838
   2    -0.2218146421832050
   3    -0.0175347798876462
   4    -0.0085998759256075
   5    -0.0092579324573055
   6     0.0133643073666384
   7    -0.0145160809362403
   8    -0.0164915235206224
   9     0.0223736365177238
  10    -0.0016771030596538
  11     0.0040488591173783
  12     0.0045159954020564
  13     0.0007224756841962
  14    -0.0030193980659664
  15     0.0001264880763699
  16     0.0003187659709863
  17    -0.0006245169154650
  18    -0.0009511595514619
  19    -0.0003253744705807
  20     0.0574692625554922
  21     0.3445772457626672
  22    -0.0289777561032090
  23     0.0494955348027605
  24     0.2968572632712474
  25    -0.0249380991942349
  26     0.0136506900037178
  27     0.0818555975903772
  28    -0.0068813727947965
  29    -0.0016985604341470
  30     0.0024705027386956
  31     0.0115641071242095
  32    -0.0031048530070071
  33    -0.0059916187679088
  34    -0.0037701137639069
  35     0.0054627677492068
  36     0.0255732373328941
  37    -0.0068901911224746
  38    -0.0132441876715017
  39    -0.0000238659301835
  40     0.0002196857497622
  41     0.0000818635595795
  42    -0.0003866664310959
  43    -0.0015311211489900
  44    -0.0005468147684428
  45    -0.0013542017736687
  46     0.1501333860922437
  47     0.2229332249223441
  48     0.0174643905716520
  49     0.0048012918830348
  50    -0.0136221606638677
  51    -0.0114712118247828
  52     0.0078433669813351
  53    -0.0238564435623432
  54    -0.0190814686664435
  55     0.0002036163161513
  56    -0.0019050222512652
  57     0.0054345352999474
  58    -0.0033928691390510
  59    -0.0021377179509760
 Ene=    0.871392
 Spin= Alpha
 Sym= 0->3
 Occup=     0.120246
   1    -0.0087163535350456
   2    -0.0097608893923601
   3    -0.0071457659388974
   4    -0.0006120303635039
   5    -0.0008758067787422
   6     0.0009048066112937
   7    -0.0004426029684779
   8    -0.0006489758749022
   9     0.0006509977152971
  10    -0.0000562422711759
  11     0.0002233414879410
  12     0.0003210351159054
  13     0.0000812287555227
  14    -0.0002175070598408
  15     0.0114306927687868
  16     0.0283810698246896
  17    -0.0438156531311883
  18    -0.0580415687911237
  19    -0.0060343427692547
  20    -0.0021840934342566
  21     0.0005615373307230
  22     0.0040156860245681
  23    -0.0022257954929917
  24     0.0005928225180899
  25     0.0040967478778021
  26    -0.0020020645074609
  27     0.0005918559839865
  28     0.0036974637461845
  29     0.0001027210779375
  30     0.0001878829154061
  31     0.0000144306389727
  32     0.0003907818795120
  33    -0.0001158525733596
  34     0.0002718890988386
  35     0.0004256320924142
  36     0.0000446116168930
  37     0.0009479741619393
  38    -0.0002844518533797
  39     0.0001036584086446
  40     0.0000271215881999
  41     0.0000361649981459
  42     0.0001287912070921
  43    -0.0000524029894035
  44    -0.0000878295157482
  45     0.0000645042635947
  46    -0.0088164494801735
  47    -0.0098425461585590
  48    -0.0070523315434222
  49    -0.0002764824192521
  50     0.0011745587278382
  51     0.0007438224274559
  52    -0.0001998346425222
  53     0.0008726949705400
  54     0.0005426852942518
  55     0.0000419537980992
  56     0.0000816816619046
  57    -0.0003480138546451
  58     0.0002622380818949
  59     0.0001287213309684
 Ene=    0.880636
 Spin= Alpha
 Sym= 0->4
 Occup=     0.078459
   1    -0.0000000000001290
   2    -0.0000000000001842
   3    -0.0000000000000029
   4     0.0006012440353818
   5    -0.0000719302802411
   6     0.0003370693524013
   7     0.0014818059729267
   8    -0.0001772769667905
   9     0.0008307298705312
  10    -0.0001957198854917
  11    -0.0001218227714298
  12     0.0001611003076598
  13     0.0001714644828841
  14     0.0002273321811932
  15     0.0000000000000035
  16     0.0000000000000081
  17    -0.0000000000000126
  18    -0.0000000000000135
  19    -0.0000000000000541
  20     0.0351448583360203
  21    -0.0042045814343880
  22     0.0197029058785194
  23     0.0315890694577369
  24    -0.0037791819703059
  25     0.0177094599831210
  26     0.0115777635679457
  27    -0.0013851144109159
  28     0.0064907242953568
  29     0.0002231184889573
  30     0.0001602972556371
  31    -0.0000046036204858
  32    -0.0001190498540753
  33     0.0000556494198527
  34     0.0010009622524456
  35     0.0007189372737218
  36    -0.0000222752262280
  37    -0.0005347781638351
  38     0.0002468041059400
  39    -0.0000086950292583
  40    -0.0000426349784483
  41    -0.0000100382700815
  42    -0.0001169450348065
  43     0.0000162588655112
  44    -0.0001566748924673
  45     0.0000709023001966
  46     0.0000000000001527
  47     0.0000000000001978
  48     0.0000000000000287
  49     0.0006030233950209
  50    -0.0000721431552766
  51     0.0003380668967385
  52     0.0014876595351799
  53    -0.0001779772621059
  54     0.0008340114937881
  55    -0.0001509759506486
  56    -0.0001272063487138
  57    -0.0001535201990586
  58     0.0000137049433178
  59    -0.0003130535822582
 Ene=    0.934963
 Spin= Alpha
 Sym= 0->5
 Occup=     0.078809
   1     0.0000000000001065
   2     0.0000000000001198
   3    -0.0000000000000408
   4    -0.0006039264296995
   5     0.0000722511904973
   6    -0.0003385731559523
   7    -0.0014884169123957
   8     0.0001780678714849
   9    -0.0008344360945429
  10     0.0001965930715479
  11     0.0001223662723891
  12    -0.0001618190416932
  13    -0.0001722294557210
  14    -0.0002283464025653
  15     0.0000000000000083
  16     0.0000000000000208
  17    -0.0000000000000314
  18    -0.0000000000000534
  19     0.0000000000000453
  20    -0.0353016538513499
  21     0.0042233397831886
  22    -0.0197908085595665
  23    -0.0317300011518350
  24     0.0037960424390146
  25    -0.0177884690908210
  26    -0.0116294166828147
  27     0.0013912939699941
  28    -0.0065196820577909
  29    -0.0002241139113346
  30    -0.0001610124069274
  31     0.0000046241591155
  32     0.0001195809839203
  33    -0.0000558976945639
  34    -0.0010054279523930
  35    -0.0007221447454722
  36     0.0000223746050899
  37     0.0005371640268509
  38    -0.0002479051995004
  39     0.0000087338213222
  40     0.0000428251904371
  41     0.0000100830548901
  42     0.0001174667741971
  43    -0.0000163314029281
  44     0.0001573738829214
  45    -0.0000712186242120
  46    -0.0000000000000948
  47    -0.0000000000001068
  48    -0.0000000000000581
  49    -0.0006057137277863
  50     0.0000724650152451
  51    -0.0003395751507425
  52    -0.0014942965897684
  53     0.0001787712910847
  54    -0.0008377323584673
  55     0.0001516495158034
  56     0.0001277738680018
  57     0.0001542051151422
  58    -0.0000137660866487
  59     0.0003144502416858
 Ene=    0.126406
 Spin= Alpha
 Sym= 1->0
 Occup=     0.697677
   1     0.0706250760866641
   2     0.2663756104223037
   3     0.3794144727591799
   4    -0.0032214200401406
   5    -0.0072314914778382
   6     0.0042029818672153
   7    -0.0005911918654725
   8     0.0095780687409209
   9     0.0030984832767548
  10     0.0000670217391733
  11    -0.0002464977790779
  12     0.0008176250081673
  13    -0.0004018494787069
  14    -0.0003507126987564
  15     0.0347036734276111
  16     0.0874678788827750
  17    -0.1516832686851323
  18    -0.3073913686059787
  19    -0.3838769640031126
  20     0.0698132706886007
  21    -0.0203176752919835
  22    -0.1288644854891698
  23     0.0818124537158837
  24    -0.0244947087242481
  25    -0.1511592813720554
  26     0.0523649027364045
  27    -0.0154733107429989
  28    -0.0967073534887422
  29    -0.0008032098118391
  30    -0.0016394733714785
  31    -0.0002060013575280
  32    -0.0032313083456953
  33     0.0010131085410209
  34    -0.0058145640145941
  35    -0.0016123724185478
  36    -0.0017437640104351
  37    -0.0112136915714574
  38     0.0038235733313889
  39    -0.0004315789654029
  40    -0.0001571768422919
  41    -0.0001513948470374
  42    -0.0005371107178089
  43     0.0002293752595169
  44     0.0003788108572534
  45    -0.0002703047444644
  46     0.0690419629862264
  47     0.2612997492347232
  48     0.3740832570293631
  49    -0.0005776149173982
  50     0.0084199864121480
  51     0.0028271318626089
  52    -0.0034999410854752
  53    -0.0081323329972737
  54     0.0045075522275913
  55     0.0002985444939151
  56    -0.0005767837342699
  57    -0.0006603043144171
  58     0.0000020912115202
  59     0.0004142940094910
 Ene=    0.211075
 Spin= Alpha
 Sym= 1->1
 Occup=     0.002596
   1    -0.0000000000001078
   2    -0.0000000000003517
   3    -0.0000000000004541
   4    -0.0000198941668152
   5     0.0000023800535445
   6    -0.0000111530652002
   7    -0.0000490304992362
   8     0.0000058658004602
   9    -0.0000274874720635
  10     0.0000064760460354
  11     0.0000040309132313
  12    -0.0000053305416875
  13    -0.0000056734750356
  14    -0.0000075220444109
  15    -0.0000000000000446
  16    -0.0000000000001122
  17     0.0000000000001935
  18     0.0000000000003936
  19     0.0000000000004811
  20    -0.0011628850074107
  21     0.0001391226183547
  22    -0.0006519364405086
  23    -0.0010452298575267
  24     0.0001250468564314
  25    -0.0005859766257313
  26    -0.0003830889726509
  27     0.0000458311360160
  28    -0.0002147672895607
  29    -0.0000073826203304
  30    -0.0000053039700266
  31     0.0000001523261588
  32     0.0000039391620035
  33    -0.0000018413469036
  34    -0.0000331201789185
  35    -0.0000237884406505
  36     0.0000007370502529
  37     0.0000176949215017
  38    -0.0000081663380741
  39     0.0000002877040814
  40     0.0000014107206458
  41     0.0000003321496895
  42     0.0000038695170255
  43    -0.0000005379788637
  44     0.0000051841120462
  45    -0.0000023460393861
  46    -0.0000000000000959
  47    -0.0000000000003293
  48    -0.0000000000004466
  49    -0.0000199530428725
  50     0.0000023870972128
  51    -0.0000111860722864
  52    -0.0000492241838851
  53     0.0000058889721011
  54    -0.0000275960555335
  55     0.0000049955435249
  56     0.0000042090468644
  57     0.0000050797284807
  58    -0.0000004534738176
  59     0.0000103584232382
 Ene=    0.377153
 Spin= Alpha
 Sym= 1->2
 Occup=     0.000157
   1     0.0000000000004589
   2     0.0000000000017139
   3     0.0000000000024467
   4    -0.0000012016739401
   5     0.0000001437631138
   6    -0.0000006736822486
   7    -0.0000029616054205
   8     0.0000003543139437
   9    -0.0000016603348196
  10     0.0000003911747447
  11     0.0000002434805798
  12    -0.0000003219824625
  13    -0.0000003426967867
  14    -0.0000004543565315
  15     0.0000000000002019
  16     0.0000000000005095
  17    -0.0000000000008936
  18    -0.0000000000018707
  19    -0.0000000000024593
  20    -0.0000702421261897
  21     0.0000084034693388
  22    -0.0000393791326446
  23    -0.0000631353632882
  24     0.0000075532464073
  25    -0.0000353949403478
  26    -0.0000231398492221
  27     0.0000027683531357
  28    -0.0000129726600509
  29    -0.0000004459348561
  30    -0.0000003203774619
  31     0.0000000092010069
  32     0.0000002379384795
  33    -0.0000001112234780
  34    -0.0000020005691285
  35    -0.0000014369010381
  36     0.0000000445202806
  37     0.0000010688321044
  38    -0.0000004932739880
  39     0.0000000173782815
  40     0.0000000852122232
  41     0.0000000200629461
  42     0.0000002337317093
  43    -0.0000000324957132
  44     0.0000003131376323
  45    -0.0000001417085928
  46     0.0000000000004840
  47     0.0000000000017281
  48     0.0000000000024158
  49    -0.0000012052302320
  50     0.0000001441886694
  51    -0.0000006756759985
  52    -0.0000029733046358
  53     0.0000003557134647
  54    -0.0000016668936177
  55     0.0000003017474647
  56     0.0000002542404418
  57     0.0000003068325122
  58    -0.0000000273913301
  59     0.0000006256832573
 Ene=    0.632822
 Spin= Alpha
 Sym= 1->3
 Occup=     0.643204
   1     0.0000000000011140
   2     0.0000000000014454
   3    -0.0000000000003073
   4    -0.0049289982722257
   5     0.0005896843979865
   6    -0.0027632943660864
   7    -0.0121478445531695
   8     0.0014533164765370
   9    -0.0068103230228984
  10     0.0016045115138897
  11     0.0009987030133514
  12    -0.0013207002338265
  13    -0.0014056657366300
  14    -0.0018636690967077
  15     0.0000000000000169
  16     0.0000000000000440
  17    -0.0000000000000570
  18    -0.0000000000001144
  19     0.0000000000005273
  20    -0.2881175293596929
  21     0.0344691562926477
  22    -0.1615244115826426
  23    -0.2589671740860690
  24     0.0309817317194912
  25    -0.1451821432258345
  26    -0.0949144993789229
  27     0.0113551671809016
  28    -0.0532109542124033
  29    -0.0018291252500718
  30    -0.0013141168137826
  31     0.0000377404782222
  32     0.0009759706384016
  33    -0.0004562139134275
  34    -0.0082058879964260
  35    -0.0058938473755983
  36     0.0001826122924141
  37     0.0043841110937679
  38    -0.0020232999251170
  39     0.0000712818450901
  40     0.0003495215299275
  41     0.0000822937326226
  42     0.0009587153311903
  43    -0.0001332901705428
  44     0.0012844206824998
  45    -0.0005812570181172
  46    -0.0000000000011477
  47    -0.0000000000015758
  48    -0.0000000000005518
  49    -0.0049435854615814
  50     0.0005914295473519
  51    -0.0027714722340101
  52    -0.0121958320533201
  53     0.0014590574970647
  54    -0.0068372257685585
  55     0.0012377007605903
  56     0.0010428375769748
  57     0.0012585585076683
  58    -0.0001123531178098
  59     0.0025664130956202
 Ene=    0.642065
 Spin= Alpha
 Sym= 1->4
 Occup=     0.858309
   1    -0.0637910225959251
   2    -0.0984372525021137
   3    -0.0069145840384063
   4    -0.0022870485305552
   5    -0.0097056765303549
   6     0.0020083174282149
   7    -0.0029754797818332
   8    -0.0212239304128760
   9     0.0007783152252233
  10     0.0017832778814546
  11     0.0005601268188624
  12     0.0025445410621410
  13     0.0029669630792765
  14    -0.0022055654033172
  15    -0.0265257449071110
  16    -0.0653610476388125
  17     0.1029280403018961
  18     0.1812512919027784
  19     0.1045140893892941
  20     0.1910836900919040
  21    -0.0614666617619824
  22    -0.3539605196597967
  23     0.1609319756810373
  24    -0.0516817297026848
  25    -0.2980896099559494
  26     0.0461602524052638
  27    -0.0147545995271067
  28    -0.0854864991593491
  29    -0.0013378109282166
  30     0.0027914337471173
  31    -0.0005693617465965
  32     0.0011997783009185
  33    -0.0001573513240953
  34    -0.0074741833044750
  35     0.0086372984983294
  36    -0.0027199876958042
  37    -0.0016384214630019
  38     0.0013570242549443
  39     0.0000730255991800
  40     0.0014174464100426
  41    -0.0001964902335373
  42     0.0002320923627147
  43     0.0000655516064298
  44    -0.0004297755648731
  45     0.0002515651685865
  46    -0.0638164295415738
  47    -0.0985681891876626
  48    -0.0069141692579214
  49     0.0010308114532385
  50     0.0101293589657306
  51     0.0003228961351336
  52     0.0040723124761890
  53     0.0209209088457665
  54    -0.0027994439237898
  55     0.0023672402322649
  56    -0.0002852799671164
  57    -0.0013539404811841
  58     0.0040179428851142
  59    -0.0001858596517894
 Ene=    0.696392
 Spin= Alpha
 Sym= 1->5
 Occup=     0.358537
   1    -0.0210371516445981
   2    -0.0430618820054115
   3    -0.0159505030847678
   4    -0.0002311544384980
   5    -0.0026824989464985
   6    -0.0001601233490040
   7    -0.0007426718111799
   8    -0.0080925941036808
   9    -0.0004022186058213
  10     0.0007289931922933
  11     0.0000453363863842
  12     0.0006775327348153
  13     0.0010952420819319
  14    -0.0006543041117257
  15    -0.0203961175653107
  16    -0.0505134734136043
  17     0.0795787926525943
  18     0.1278956133958851
  19     0.0634966360928165
  20     0.0712698999849817
  21    -0.0248356231579562
  22    -0.1324268589991100
  23     0.0591984225462421
  24    -0.0204977630614145
  25    -0.1099687884359232
  26     0.0165908874888335
  27    -0.0056474806914118
  28    -0.0307989941524678
  29    -0.0005469029220090
  30     0.0010074181425968
  31    -0.0002440682993012
  32     0.0003356717916600
  33    -0.0000112153906225
  34    -0.0027785540715159
  35     0.0030679123050412
  36    -0.0010455505146121
  37    -0.0007685634238054
  38     0.0005724800322066
  39    -0.0000284353707096
  40     0.0005323000262649
  41    -0.0000921100924500
  42     0.0000190360540630
  43     0.0000532528249136
  44    -0.0001164825198965
  45     0.0000653460180664
  46    -0.0217899900427435
  47    -0.0439501192516055
  48    -0.0158398024117114
  49     0.0006117658725036
  50     0.0026564348348019
  51    -0.0005243504891164
  52     0.0018614942108940
  53     0.0078512136486790
  54    -0.0016449798514947
  55     0.0008640176877538
  56    -0.0001356824055551
  57    -0.0002519810577619
  58     0.0013630063538722
  59    -0.0001783149102205
 Ene=    0.051714
 Spin= Alpha
 Sym= 2->0
 Occup=     0.696830
   1     0.1674139993024482
   2     0.3407076089091405
   3     0.0299141831473539
   4     0.0017160502345353
   5     0.0002282324453220
   6    -0.0030122825971187
   7     0.0181253507065786
   8     0.0221316276176525
   9    -0.0276080419629283
  10     0.0012331749737982
  11    -0.0008136240405212
  12     0.0022203664860439
  13     0.0005077331960963
  14    -0.0013307443020568
  15    -0.0003238700904436
  16    -0.0008415309967334
  17     0.0021957091613767
  18     0.0020557355893304
  19     0.0015848969198485
  20     0.0687909893398243
  21     0.4187068662372312
  22    -0.0333535805717017
  23     0.0342391544737036
  24     0.2091939253765269
  25    -0.0164319588493427
  26    -0.0056874578938292
  27    -0.0330065792174330
  28     0.0031013725654768
  29     0.0032629004516292
  30    -0.0048559061565554
  31    -0.0230295699386874
  32     0.0060572870113465
  33     0.0119583411373611
  34     0.0075715145425220
  35    -0.0110439372604505
  36    -0.0522693953874982
  37     0.0140003669575328
  38     0.0270817043136688
  39     0.0007005348904059
  40    -0.0013656487541532
  41    -0.0032321625863193
  42     0.0023317442191414
  43     0.0060475502807407
  44     0.0003996254878825
  45     0.0021493284035310
  46    -0.1695437045416356
  47    -0.3455169278450056
  48    -0.0326386150296764
  49    -0.0014762057803346
  50     0.0012627515004617
  51     0.0029026370472250
  52    -0.0092077732600282
  53     0.0315574153717688
  54     0.0231585945968926
  55    -0.0017335795290819
  56     0.0015412804013745
  57     0.0012670345606272
  58    -0.0014446672373383
  59    -0.0004748270703935
 Ene=    0.136384
 Spin= Alpha
 Sym= 2->1
 Occup=     0.000008
   1    -0.0000000000002816
   2    -0.0000000000005247
   3    -0.0000000000000490
   4     0.0000000580631948
   5    -0.0000000069464467
   6     0.0000000325513910
   7     0.0000001431005991
   8    -0.0000000171200006
   9     0.0000000802250883
  10    -0.0000000189010153
  11    -0.0000000117646386
  12     0.0000000155577424
  13     0.0000000165586312
  14     0.0000000219538698
  15    -0.0000000000000105
  16    -0.0000000000000256
  17     0.0000000000000404
  18     0.0000000000001017
  19     0.0000000000000971
  20     0.0000033940012760
  21    -0.0000004060444301
  22     0.0000019027441421
  23     0.0000030506124611
  24    -0.0000003649625917
  25     0.0000017102335852
  26     0.0000011180851673
  27    -0.0000001337629249
  28     0.0000006268206375
  29     0.0000000215469421
  30     0.0000000154801987
  31    -0.0000000004445529
  32    -0.0000000114968604
  33     0.0000000053741483
  34     0.0000000966646790
  35     0.0000000694290677
  36    -0.0000000021510986
  37    -0.0000000516444907
  38     0.0000000238342780
  39    -0.0000000008396950
  40    -0.0000000041173321
  41    -0.0000000009694098
  42    -0.0000000112935913
  43     0.0000000015701402
  44    -0.0000000151303727
  45     0.0000000068471584
  46     0.0000000000001211
  47     0.0000000000002942
  48     0.0000000000000257
  49     0.0000000582350387
  50    -0.0000000069669809
  51     0.0000000326477164
  52     0.0000001436659286
  53    -0.0000000171875929
  54     0.0000000805419358
  55    -0.0000000145800100
  56    -0.0000000122845442
  57    -0.0000000148257207
  58     0.0000000013235171
  59    -0.0000000302321378
 Ene=    0.302461
 Spin= Alpha
 Sym= 2->2
 Occup=     0.015329
   1     0.0000000000010359
   2     0.0000000000021405
   3     0.0000000000001827
   4    -0.0001174688019600
   5     0.0000140534680523
   6    -0.0000658553443907
   7    -0.0002895096867098
   8     0.0000346357082344
   9    -0.0001623048828873
  10     0.0000382390163075
  11     0.0000238012756356
  12    -0.0000314751731628
  13    -0.0000335000868145
  14    -0.0000444153079414
  15    -0.0000000000000055
  16    -0.0000000000000138
  17     0.0000000000000273
  18     0.0000000000000282
  19     0.0000000000000215
  20    -0.0068664704525322
  21     0.0008214753354743
  22    -0.0038494797664910
  23    -0.0061717537736851
  24     0.0007383623841399
  25    -0.0034600077927123
  26    -0.0022620199715209
  27     0.0002706184523487
  28    -0.0012681333401825
  29    -0.0000435920525438
  30    -0.0000313182759220
  31     0.0000008994379399
  32     0.0000232595134956
  33    -0.0000108725746128
  34    -0.0001955642462290
  35    -0.0001404632650056
  36     0.0000043520497298
  37     0.0001044829496497
  38    -0.0000482196593013
  39     0.0000016988021713
  40     0.0000083298619862
  41     0.0000019612394936
  42     0.0000228482817878
  43    -0.0000031765960528
  44     0.0000306105521795
  45    -0.0000138526251616
  46    -0.0000000000010403
  47    -0.0000000000021609
  48    -0.0000000000002124
  49    -0.0001178164465773
  50     0.0000140950587788
  51    -0.0000660502408350
  52    -0.0002906533338886
  53     0.0000347725293573
  54    -0.0001629460338095
  55     0.0000294971143127
  56     0.0000248530987617
  57     0.0000299942000371
  58    -0.0000026776203757
  59     0.0000611632333831
 Ene=    0.558130
 Spin= Alpha
 Sym= 2->3
 Occup=     0.002523
   1    -0.0000000000001075
   2    -0.0000000000002722
   3    -0.0000000000002105
   4    -0.0000193313118526
   5     0.0000023127159669
   6    -0.0000108375175196
   7    -0.0000476433056906
   8     0.0000056998425257
   9    -0.0000267097837837
  10     0.0000062928227461
  11     0.0000039168687707
  12    -0.0000051797275386
  13    -0.0000055129584582
  14    -0.0000073092272520
  15    -0.0000000000000013
  16    -0.0000000000000037
  17     0.0000000000000137
  18     0.0000000000000692
  19     0.0000000000001799
  20    -0.0011299841272014
  21     0.0001351864967474
  22    -0.0006334915532916
  23    -0.0010156577311815
  24     0.0001215089728653
  25    -0.0005693979041262
  26    -0.0003722504423078
  27     0.0000445344603318
  28    -0.0002086909941482
  29    -0.0000071737478241
  30    -0.0000051539076544
  31     0.0000001480164852
  32     0.0000038277134067
  33    -0.0000017892506695
  34    -0.0000321831275085
  35    -0.0000231154070889
  36     0.0000007161973054
  37     0.0000171942885909
  38    -0.0000079352922700
  39     0.0000002795642240
  40     0.0000013708078851
  41     0.0000003227523581
  42     0.0000037600388597
  43    -0.0000005227581192
  44     0.0000050374407516
  45    -0.0000022796641562
  46     0.0000000000000219
  47    -0.0000000000000052
  48    -0.0000000000001837
  49    -0.0000193885221595
  50     0.0000023195603585
  51    -0.0000108695907559
  52    -0.0000478315105178
  53     0.0000057223585578
  54    -0.0000268152951761
  55     0.0000048542072981
  56     0.0000040899625639
  57     0.0000049360104530
  58    -0.0000004406439270
  59     0.0000100653579398
 Ene=    0.567374
 Spin= Alpha
 Sym= 2->4
 Occup=     0.017532
   1    -0.0048600906318021